
     Program PWSCF v.6.3MaX starts on 18Sep2019 at 22:10:11 

     This program is part of the open-source Quantum ESPRESSO suite
     for quantum simulation of materials; please cite
         "P. Giannozzi et al., J. Phys.:Condens. Matter 21 395502 (2009);
         "P. Giannozzi et al., J. Phys.:Condens. Matter 29 465901 (2017);
          URL http://www.quantum-espresso.org", 
     in publications or presentations arising from this work. More details at
     http://www.quantum-espresso.org/quote

     Parallel version (MPI), running on     1 processors

     MPI processes distributed on     1 nodes
     Waiting for input...
     Reading input from standard input

     Current dimensions of program PWSCF are:
     Max number of different atomic species (ntypx) = 10
     Max number of k-points (npk) =  40000
     Max angular momentum in pseudopotentials (lmaxx) =  3

     Subspace diagonalization in iterative solution of the eigenvalue problem:
     a serial algorithm will be used

 
     G-vector sticks info
     --------------------
     sticks:   dense  smooth     PW     G-vecs:    dense   smooth      PW
     Sum         241     241     85                 2421     2421     531
 


     bravais-lattice index     =            2
     lattice parameter (alat)  =      10.3295  a.u.
     unit-cell volume          =     275.5397 (a.u.)^3
     number of atoms/cell      =            2
     number of atomic types    =            1
     number of electrons       =         8.00
     number of Kohn-Sham states=            4
     kinetic-energy cutoff     =      16.0000  Ry
     charge density cutoff     =      64.0000  Ry
     convergence threshold     =      1.0E-08
     mixing beta               =       0.7000
     number of iterations used =            8  plain     mixing
     Exchange-correlation      = PBE ( 1  4  3  4 0 0)

     celldm(1)=  10.329550  celldm(2)=   0.000000  celldm(3)=   0.000000
     celldm(4)=   0.000000  celldm(5)=   0.000000  celldm(6)=   0.000000

     crystal axes: (cart. coord. in units of alat)
               a(1) = (  -0.500000   0.000000   0.500000 )  
               a(2) = (   0.000000   0.500000   0.500000 )  
               a(3) = (  -0.500000   0.500000   0.000000 )  

     reciprocal axes: (cart. coord. in units 2 pi/alat)
               b(1) = ( -1.000000 -1.000000  1.000000 )  
               b(2) = (  1.000000  1.000000  1.000000 )  
               b(3) = ( -1.000000  1.000000 -1.000000 )  


     PseudoPot. # 1 for Si read from file:
     /home/planck/kedar/softwares/SSSP_precision_pseudos/Si.pbe-n-rrkjus_psl.1.0.0.UPF
     MD5 check sum: 0b0bb1205258b0d07b9f9672cf965d36
     Pseudo is Ultrasoft + core correction, Zval =  4.0
     Generated using "atomic" code by A. Dal Corso v.5.1
     Using radial grid of 1141 points,  6 beta functions with: 
                l(1) =   0
                l(2) =   0
                l(3) =   1
                l(4) =   1
                l(5) =   2
                l(6) =   2
     Q(r) pseudized with 0 coefficients 


     atomic species   valence    mass     pseudopotential
        Si             4.00    28.08600     Si( 1.00)

     48 Sym. Ops., with inversion, found (24 have fractional translation)



   Cartesian axes

     site n.     atom                  positions (alat units)
         1           Si  tau(   1) = (   0.0000000   0.0000000   0.0000000  )
         2           Si  tau(   2) = (   0.2500000   0.2500000   0.2500000  )

     number of k points=    10
                       cart. coord. in units 2pi/alat
        k(    1) = (  -0.1250000   0.1250000   0.1250000), wk =   0.0625000
        k(    2) = (  -0.3750000   0.3750000  -0.1250000), wk =   0.1875000
        k(    3) = (   0.3750000  -0.3750000   0.6250000), wk =   0.1875000
        k(    4) = (   0.1250000  -0.1250000   0.3750000), wk =   0.1875000
        k(    5) = (  -0.1250000   0.6250000   0.1250000), wk =   0.1875000
        k(    6) = (   0.6250000  -0.1250000   0.8750000), wk =   0.3750000
        k(    7) = (   0.3750000   0.1250000   0.6250000), wk =   0.3750000
        k(    8) = (  -0.1250000  -0.8750000   0.1250000), wk =   0.1875000
        k(    9) = (  -0.3750000   0.3750000   0.3750000), wk =   0.0625000
        k(   10) = (   0.3750000  -0.3750000   1.1250000), wk =   0.1875000

     Dense  grid:     2421 G-vectors     FFT dimensions: (  20,  20,  20)

     Estimated max dynamical RAM per process >      10.40 MB

     Check: negative/imaginary core charge=   -0.000056    0.000000

     Initial potential from superposition of free atoms

     starting charge    7.99888, renormalised to    8.00000
     Starting wfcs are    8 randomized atomic wfcs

     total cpu time spent up to now is        0.6 secs

     Self-consistent Calculation

     iteration #  1     ecut=    16.00 Ry     beta= 0.70
     Davidson diagonalization with overlap
     ethr =  1.00E-02,  avg # of iterations =  2.0

     Threshold (ethr) on eigenvalues was too large:
     Diagonalizing with lowered threshold

     Davidson diagonalization with overlap
     ethr =  6.67E-04,  avg # of iterations =  1.4

     total cpu time spent up to now is        0.7 secs

     total energy              =     -22.83495876 Ry
     Harris-Foulkes estimate   =     -22.84718653 Ry
     estimated scf accuracy    <       0.05321103 Ry

     iteration #  2     ecut=    16.00 Ry     beta= 0.70
     Davidson diagonalization with overlap
     ethr =  6.65E-04,  avg # of iterations =  1.0

     total cpu time spent up to now is        0.8 secs

     total energy              =     -22.83684099 Ry
     Harris-Foulkes estimate   =     -22.83702130 Ry
     estimated scf accuracy    <       0.00258681 Ry

     iteration #  3     ecut=    16.00 Ry     beta= 0.70
     Davidson diagonalization with overlap
     ethr =  3.23E-05,  avg # of iterations =  2.9

     total cpu time spent up to now is        0.8 secs

     total energy              =     -22.83738312 Ry
     Harris-Foulkes estimate   =     -22.83743368 Ry
     estimated scf accuracy    <       0.00011224 Ry

     iteration #  4     ecut=    16.00 Ry     beta= 0.70
     Davidson diagonalization with overlap
     ethr =  1.40E-06,  avg # of iterations =  2.0

     total cpu time spent up to now is        0.8 secs

     total energy              =     -22.83740331 Ry
     Harris-Foulkes estimate   =     -22.83742191 Ry
     estimated scf accuracy    <       0.00003916 Ry

     iteration #  5     ecut=    16.00 Ry     beta= 0.70
     Davidson diagonalization with overlap
     ethr =  4.90E-07,  avg # of iterations =  2.0

     total cpu time spent up to now is        0.9 secs

     total energy              =     -22.83740837 Ry
     Harris-Foulkes estimate   =     -22.83740843 Ry
     estimated scf accuracy    <       0.00000019 Ry

     iteration #  6     ecut=    16.00 Ry     beta= 0.70
     Davidson diagonalization with overlap
     ethr =  2.40E-09,  avg # of iterations =  3.7

     total cpu time spent up to now is        0.9 secs

     total energy              =     -22.83740861 Ry
     Harris-Foulkes estimate   =     -22.83740862 Ry
     estimated scf accuracy    <       0.00000002 Ry

     iteration #  7     ecut=    16.00 Ry     beta= 0.70
     Davidson diagonalization with overlap
     ethr =  2.13E-10,  avg # of iterations =  1.4

     total cpu time spent up to now is        1.0 secs

     End of self-consistent calculation

          k =-0.1250 0.1250 0.1250 (   304 PWs)   bands (ev):

    -5.6168   4.4222   5.7348   5.7348

          k =-0.3750 0.3750-0.1250 (   298 PWs)   bands (ev):

    -4.5898   1.4229   3.7410   5.2509

          k = 0.3750-0.3750 0.6250 (   298 PWs)   bands (ev):

    -3.4493  -0.6589   3.7619   4.4752

          k = 0.1250-0.1250 0.3750 (   300 PWs)   bands (ev):

    -5.0889   2.8019   4.7210   4.7868

          k =-0.1250 0.6250 0.1250 (   303 PWs)   bands (ev):

    -4.0576   1.0892   3.3905   3.8429

          k = 0.6250-0.1250 0.8750 (   295 PWs)   bands (ev):

    -2.4167  -0.8746   2.0333   3.1114

          k = 0.3750 0.1250 0.6250 (   296 PWs)   bands (ev):

    -3.6414   0.2145   2.7478   4.1193

          k =-0.1250-0.8750 0.1250 (   297 PWs)   bands (ev):

    -2.5851  -0.7772   2.6436   3.3736

          k =-0.3750 0.3750 0.3750 (   296 PWs)   bands (ev):

    -4.1569   0.1300   4.9423   4.9423

          k = 0.3750-0.3750 1.1250 (   293 PWs)   bands (ev):

    -2.9536  -0.5727   2.0924   4.1567

     highest occupied level (ev):     5.7348

!    total energy              =     -22.83740861 Ry
     Harris-Foulkes estimate   =     -22.83740861 Ry
     estimated scf accuracy    <          6.4E-10 Ry

     The total energy is the sum of the following terms:

     one-electron contribution =       5.01996919 Ry
     hartree contribution      =       1.11863318 Ry
     xc contribution           =     -12.28820347 Ry
     ewald contribution        =     -16.68780751 Ry

     convergence has been achieved in   7 iterations

     Forces acting on atoms (cartesian axes, Ry/au):

     atom    1 type  1   force =    -0.00000000   -0.00000000    0.00000000
     atom    2 type  1   force =     0.00000000    0.00000000    0.00000000

     Total force =     0.000000     Total SCF correction =     0.000000


     Computing stress (Cartesian axis) and pressure

          total   stress  (Ry/bohr**3)                   (kbar)     P=    5.90
   0.00004009   0.00000000   0.00000000          5.90      0.00      0.00
   0.00000000   0.00004009  -0.00000000          0.00      5.90     -0.00
   0.00000000  -0.00000000   0.00004009          0.00     -0.00      5.90


     Writing output data file Si1.save/
 
     init_run     :      0.13s CPU      0.18s WALL (       1 calls)
     electrons    :      0.28s CPU      0.36s WALL (       1 calls)
     forces       :      0.01s CPU      0.01s WALL (       1 calls)
     stress       :      0.03s CPU      0.03s WALL (       1 calls)

     Called by init_run:
     wfcinit      :      0.01s CPU      0.01s WALL (       1 calls)
     potinit      :      0.00s CPU      0.00s WALL (       1 calls)
     hinit0       :      0.11s CPU      0.15s WALL (       1 calls)

     Called by electrons:
     c_bands      :      0.19s CPU      0.24s WALL (       8 calls)
     sum_band     :      0.06s CPU      0.08s WALL (       8 calls)
     v_of_rho     :      0.02s CPU      0.02s WALL (       8 calls)
     newd         :      0.02s CPU      0.02s WALL (       8 calls)
     mix_rho      :      0.00s CPU      0.00s WALL (       8 calls)

     Called by c_bands:
     init_us_2    :      0.01s CPU      0.01s WALL (     190 calls)
     cegterg      :      0.14s CPU      0.18s WALL (      80 calls)

     Called by sum_band:
     sum_band:bec :      0.00s CPU      0.00s WALL (      80 calls)
     addusdens    :      0.03s CPU      0.04s WALL (       8 calls)

     Called by *egterg:
     h_psi        :      0.13s CPU      0.17s WALL (     254 calls)
     s_psi        :      0.00s CPU      0.01s WALL (     254 calls)
     g_psi        :      0.00s CPU      0.00s WALL (     164 calls)
     cdiaghg      :      0.01s CPU      0.01s WALL (     234 calls)

     Called by h_psi:
     h_psi:pot    :      0.13s CPU      0.17s WALL (     254 calls)
     h_psi:calbec :      0.00s CPU      0.00s WALL (     254 calls)
     vloc_psi     :      0.12s CPU      0.15s WALL (     254 calls)
     add_vuspsi   :      0.00s CPU      0.01s WALL (     254 calls)

     General routines
     calbec       :      0.01s CPU      0.01s WALL (     384 calls)
     fft          :      0.01s CPU      0.03s WALL (     115 calls)
     ffts         :      0.00s CPU      0.00s WALL (       8 calls)
     fftw         :      0.13s CPU      0.16s WALL (    2226 calls)
 
     Parallel routines
 
     PWSCF        :     0.80s CPU         1.04s WALL

 
   This run was terminated on:  22:10:12  18Sep2019            

=------------------------------------------------------------------------------=
   JOB DONE.
=------------------------------------------------------------------------------=
