
     Program PHONON v.6.3MaX starts on 18Sep2019 at 22:10:12 

     This program is part of the open-source Quantum ESPRESSO suite
     for quantum simulation of materials; please cite
         "P. Giannozzi et al., J. Phys.:Condens. Matter 21 395502 (2009);
         "P. Giannozzi et al., J. Phys.:Condens. Matter 29 465901 (2017);
          URL http://www.quantum-espresso.org", 
     in publications or presentations arising from this work. More details at
     http://www.quantum-espresso.org/quote

     Parallel version (MPI), running on     1 processors

     MPI processes distributed on     1 nodes

     Reading data from directory:
     ./tmp/Si1.save/

     IMPORTANT: XC functional enforced from input :
     Exchange-correlation      = PBE ( 1  4  3  4 0 0)
     Any further DFT definition will be discarded
     Please, verify this is what you really want

 
     G-vector sticks info
     --------------------
     sticks:   dense  smooth     PW     G-vecs:    dense   smooth      PW
     Sum         241     241     85                 2421     2421     531
 

     Check: negative/imaginary core charge=   -0.000056    0.000000


     Dynamical matrices for ( 4, 4, 4)  uniform grid of q-points
     (   8 q-points):
       N         xq(1)         xq(2)         xq(3) 
       1   0.000000000   0.000000000   0.000000000
       2  -0.250000000   0.250000000  -0.250000000
       3   0.500000000  -0.500000000   0.500000000
       4   0.000000000   0.500000000   0.000000000
       5   0.750000000  -0.250000000   0.750000000
       6   0.500000000   0.000000000   0.500000000
       7   0.000000000  -1.000000000   0.000000000
       8  -0.500000000  -1.000000000   0.000000000

     Calculation of q =    0.0000000   0.0000000   0.0000000

     phonons of Si                                                              

     bravais-lattice index     =            2
     lattice parameter (alat)  =      10.3295  a.u.
     unit-cell volume          =     275.5397 (a.u.)^3
     number of atoms/cell      =            2
     number of atomic types    =            1
     kinetic-energy cut-off    =      16.0000  Ry
     charge density cut-off    =      64.0000  Ry
     convergence threshold     =      1.0E-12
     beta                      =       0.7000
     number of iterations used =            4
     Exchange-correlation      = PBE ( 1  4  3  4 0 0)


     celldm(1)=   10.32955  celldm(2)=    0.00000  celldm(3)=    0.00000
     celldm(4)=    0.00000  celldm(5)=    0.00000  celldm(6)=    0.00000

     crystal axes: (cart. coord. in units of alat)
               a(1) = ( -0.5000  0.0000  0.5000 )  
               a(2) = (  0.0000  0.5000  0.5000 )  
               a(3) = ( -0.5000  0.5000  0.0000 )  

     reciprocal axes: (cart. coord. in units 2 pi/alat)
               b(1) = ( -1.0000 -1.0000  1.0000 )  
               b(2) = (  1.0000  1.0000  1.0000 )  
               b(3) = ( -1.0000  1.0000 -1.0000 )  


     Atoms inside the unit cell: 

     Cartesian axes

     site n.  atom      mass           positions (alat units)
        1     Si  28.0860   tau(    1) = (    0.00000    0.00000    0.00000  )
        2     Si  28.0860   tau(    2) = (    0.25000    0.25000    0.25000  )

     Computing dynamical matrix for 
                    q = (   0.0000000   0.0000000   0.0000000 )
 
     49 Sym.Ops. (with q -> -q+G )


     G cutoff =  172.9749  (   2421 G-vectors)     FFT grid: ( 20, 20, 20)
     number of k points=    10

     PseudoPot. # 1 for Si read from file:
     /home/planck/kedar/softwares/SSSP_precision_pseudos/Si.pbe-n-rrkjus_psl.1.0.0.UPF
     MD5 check sum: 0b0bb1205258b0d07b9f9672cf965d36
     Pseudo is Ultrasoft + core correction, Zval =  4.0
     Generated using "atomic" code by A. Dal Corso v.5.1
     Using radial grid of 1141 points,  6 beta functions with: 
                l(1) =   0
                l(2) =   0
                l(3) =   1
                l(4) =   1
                l(5) =   2
                l(6) =   2
     Q(r) pseudized with 0 coefficients 


     Mode symmetry, O_h (m-3m)  point group:


     Electric field:
     Dielectric constant
     Born effective charges in two ways 


     Atomic displacements:
     There are   2 irreducible representations

     Representation     1      3 modes -T_2g G_25' G_5+  To be done

     Representation     2      3 modes -T_1u G_15  G_4-  To be done



     Alpha used in Ewald sum =   0.7000
     PHONON       :     0.70s CPU         0.89s WALL


     Electric Fields Calculation

      iter #   1 total cpu time :     1.6 secs   av.it.:   6.4
      thresh= 1.000E-02 alpha_mix =  0.700 |ddv_scf|^2 =  7.585E-07

      iter #   2 total cpu time :     2.0 secs   av.it.:  10.4
      thresh= 8.709E-05 alpha_mix =  0.700 |ddv_scf|^2 =  4.433E-08

      iter #   3 total cpu time :     2.3 secs   av.it.:  10.2
      thresh= 2.105E-05 alpha_mix =  0.700 |ddv_scf|^2 =  2.974E-09

      iter #   4 total cpu time :     2.6 secs   av.it.:   9.6
      thresh= 5.454E-06 alpha_mix =  0.700 |ddv_scf|^2 =  1.930E-11

      iter #   5 total cpu time :     3.0 secs   av.it.:  10.0
      thresh= 4.393E-07 alpha_mix =  0.700 |ddv_scf|^2 =  1.701E-14

     End of electric fields calculation

          Dielectric constant in cartesian axis 

          (      13.858149201      -0.000000000      -0.000000000 )
          (      -0.000000000      13.858149201       0.000000000 )
          (      -0.000000000       0.000000000      13.858149201 )

          Effective charges (d Force / dE) in cartesian axis

           atom      1   Si 
      Ex  (       -0.07275        0.00000        0.00000 )
      Ey  (        0.00000       -0.07275       -0.00000 )
      Ez  (        0.00000        0.00000       -0.07275 )
           atom      2   Si 
      Ex  (       -0.07275       -0.00000       -0.00000 )
      Ey  (        0.00000       -0.07275        0.00000 )
      Ez  (       -0.00000       -0.00000       -0.07275 )


     Representation #  1 modes #   1  2  3

     Self-consistent Calculation

      iter #   1 total cpu time :     3.6 secs   av.it.:   5.3
      thresh= 1.000E-02 alpha_mix =  0.700 |ddv_scf|^2 =  2.010E-07

      iter #   2 total cpu time :     4.0 secs   av.it.:   9.8
      thresh= 4.483E-05 alpha_mix =  0.700 |ddv_scf|^2 =  1.299E-08

      iter #   3 total cpu time :     4.3 secs   av.it.:   9.5
      thresh= 1.140E-05 alpha_mix =  0.700 |ddv_scf|^2 =  6.029E-10

      iter #   4 total cpu time :     4.6 secs   av.it.:   9.2
      thresh= 2.455E-06 alpha_mix =  0.700 |ddv_scf|^2 =  1.102E-12

      iter #   5 total cpu time :     5.0 secs   av.it.:  10.2
      thresh= 1.050E-07 alpha_mix =  0.700 |ddv_scf|^2 =  1.432E-14

     End of self-consistent calculation

     Convergence has been achieved 


     Representation #  2 modes #   4  5  6

     Self-consistent Calculation

      iter #   1 total cpu time :     5.4 secs   av.it.:   5.8
      thresh= 1.000E-02 alpha_mix =  0.700 |ddv_scf|^2 =  1.846E-07

      iter #   2 total cpu time :     5.7 secs   av.it.:   9.9
      thresh= 4.296E-05 alpha_mix =  0.700 |ddv_scf|^2 =  1.410E-08

      iter #   3 total cpu time :     6.0 secs   av.it.:   9.8
      thresh= 1.188E-05 alpha_mix =  0.700 |ddv_scf|^2 =  5.323E-10

      iter #   4 total cpu time :     6.4 secs   av.it.:   9.9
      thresh= 2.307E-06 alpha_mix =  0.700 |ddv_scf|^2 =  1.611E-12

      iter #   5 total cpu time :     6.7 secs   av.it.:  10.1
      thresh= 1.269E-07 alpha_mix =  0.700 |ddv_scf|^2 =  6.834E-15

     End of self-consistent calculation

     Convergence has been achieved 
 
     Number of q in the star =    1
     List of q in the star:
          1   0.000000000   0.000000000   0.000000000

          Dielectric constant in cartesian axis 

          (      13.858149201      -0.000000000      -0.000000000 )
          (      -0.000000000      13.858149201       0.000000000 )
          (      -0.000000000       0.000000000      13.858149201 )

          Effective charges (d Force / dE) in cartesian axis

           atom      1   Si 
      Ex  (       -0.07275        0.00000        0.00000 )
      Ey  (        0.00000       -0.07275       -0.00000 )
      Ez  (        0.00000        0.00000       -0.07275 )
           atom      2   Si 
      Ex  (       -0.07275       -0.00000       -0.00000 )
      Ey  (        0.00000       -0.07275        0.00000 )
      Ez  (       -0.00000       -0.00000       -0.07275 )

          Effective charges (d P / du) in cartesian axis 

           atom      1   Si 
      Px  (       -0.07296       -0.00000       -0.00000 )
      Py  (       -0.00000       -0.07296        0.00000 )
      Pz  (       -0.00000        0.00000       -0.07296 )
           atom      2   Si 
      Px  (       -0.07296       -0.00000       -0.00000 )
      Py  (       -0.00000       -0.07296        0.00000 )
      Pz  (       -0.00000        0.00000       -0.07296 )

     Diagonalizing the dynamical matrix

     q = (    0.000000000   0.000000000   0.000000000 ) 

 **************************************************************************
     freq (    1) =      -1.697622 [THz] =     -56.626585 [cm-1]
     freq (    2) =      -1.697622 [THz] =     -56.626585 [cm-1]
     freq (    3) =      -1.697622 [THz] =     -56.626585 [cm-1]
     freq (    4) =      15.097125 [THz] =     503.585869 [cm-1]
     freq (    5) =      15.097125 [THz] =     503.585869 [cm-1]
     freq (    6) =      15.097125 [THz] =     503.585869 [cm-1]
 **************************************************************************

     Mode symmetry, O_h (m-3m)  point group:

     freq (  1 -  3) =        -56.6  [cm-1]   --> T_1u G_15  G_4- I  
     freq (  4 -  6) =        503.6  [cm-1]   --> T_2g G_25' G_5+ R  

     Calculation of q =   -0.2500000   0.2500000  -0.2500000

     Subspace diagonalization in iterative solution of the eigenvalue problem:
     a serial algorithm will be used

 
     G-vector sticks info
     --------------------
     sticks:   dense  smooth     PW     G-vecs:    dense   smooth      PW
     Sum         241     241     91                 2421     2421     561
 

     Title: 
     phonons of Si                                                              


     bravais-lattice index     =            2
     lattice parameter (alat)  =      10.3295  a.u.
     unit-cell volume          =     275.5397 (a.u.)^3
     number of atoms/cell      =            2
     number of atomic types    =            1
     number of electrons       =         8.00
     number of Kohn-Sham states=            4
     kinetic-energy cutoff     =      16.0000  Ry
     charge density cutoff     =      64.0000  Ry
     Exchange-correlation      = PBE ( 1  4  3  4 0 0)

     celldm(1)=  10.329550  celldm(2)=   0.000000  celldm(3)=   0.000000
     celldm(4)=   0.000000  celldm(5)=   0.000000  celldm(6)=   0.000000

     crystal axes: (cart. coord. in units of alat)
               a(1) = (  -0.500000   0.000000   0.500000 )  
               a(2) = (   0.000000   0.500000   0.500000 )  
               a(3) = (  -0.500000   0.500000   0.000000 )  

     reciprocal axes: (cart. coord. in units 2 pi/alat)
               b(1) = ( -1.000000 -1.000000  1.000000 )  
               b(2) = (  1.000000  1.000000  1.000000 )  
               b(3) = ( -1.000000  1.000000 -1.000000 )  


     PseudoPot. # 1 for Si read from file:
     /home/planck/kedar/softwares/SSSP_precision_pseudos/Si.pbe-n-rrkjus_psl.1.0.0.UPF
     MD5 check sum: 0b0bb1205258b0d07b9f9672cf965d36
     Pseudo is Ultrasoft + core correction, Zval =  4.0
     Generated using "atomic" code by A. Dal Corso v.5.1
     Using radial grid of 1141 points,  6 beta functions with: 
                l(1) =   0
                l(2) =   0
                l(3) =   1
                l(4) =   1
                l(5) =   2
                l(6) =   2
     Q(r) pseudized with 0 coefficients 


     atomic species   valence    mass     pseudopotential
        Si             4.00    28.08600     Si( 1.00)

     48 Sym. Ops., with inversion, found



   Cartesian axes

     site n.     atom                  positions (alat units)
         1           Si  tau(   1) = (   0.0000000   0.0000000   0.0000000  )
         2           Si  tau(   2) = (   0.2500000   0.2500000   0.2500000  )

     number of k points=   120

     Number of k-points >= 100: set verbosity='high' to print them.

     Dense  grid:     2421 G-vectors     FFT dimensions: (  20,  20,  20)

     Estimated max dynamical RAM per process >       9.09 MB

     Check: negative/imaginary core charge=   -0.000056    0.000000

     The potential is recalculated from file :
     ./tmp/_ph0/Si1.save/charge-density.dat

     Starting wfcs are    8 atomic wfcs

     Band Structure Calculation
     Davidson diagonalization with overlap

     ethr =  1.25E-10,  avg # of iterations = 13.2

     total cpu time spent up to now is        1.7 secs

     End of band structure calculation

     Number of k-points >= 100: set verbosity='high' to print the bands.

     highest occupied level (ev):     5.7347

     Writing output data file Si1.save/

     phonons of Si                                                              

     bravais-lattice index     =            2
     lattice parameter (alat)  =      10.3295  a.u.
     unit-cell volume          =     275.5397 (a.u.)^3
     number of atoms/cell      =            2
     number of atomic types    =            1
     kinetic-energy cut-off    =      16.0000  Ry
     charge density cut-off    =      64.0000  Ry
     convergence threshold     =      1.0E-12
     beta                      =       0.7000
     number of iterations used =            4
     Exchange-correlation      = PBE ( 1  4  3  4 0 0)


     celldm(1)=   10.32955  celldm(2)=    0.00000  celldm(3)=    0.00000
     celldm(4)=    0.00000  celldm(5)=    0.00000  celldm(6)=    0.00000

     crystal axes: (cart. coord. in units of alat)
               a(1) = ( -0.5000  0.0000  0.5000 )  
               a(2) = (  0.0000  0.5000  0.5000 )  
               a(3) = ( -0.5000  0.5000  0.0000 )  

     reciprocal axes: (cart. coord. in units 2 pi/alat)
               b(1) = ( -1.0000 -1.0000  1.0000 )  
               b(2) = (  1.0000  1.0000  1.0000 )  
               b(3) = ( -1.0000  1.0000 -1.0000 )  


     Atoms inside the unit cell: 

     Cartesian axes

     site n.  atom      mass           positions (alat units)
        1     Si  28.0860   tau(    1) = (    0.00000    0.00000    0.00000  )
        2     Si  28.0860   tau(    2) = (    0.25000    0.25000    0.25000  )

     Computing dynamical matrix for 
                    q = (  -0.2500000   0.2500000  -0.2500000 )
 
      6 Sym.Ops. (no q -> -q+G )


     G cutoff =  172.9749  (   2421 G-vectors)     FFT grid: ( 20, 20, 20)
     number of k points=   120

     PseudoPot. # 1 for Si read from file:
     /home/planck/kedar/softwares/SSSP_precision_pseudos/Si.pbe-n-rrkjus_psl.1.0.0.UPF
     MD5 check sum: 0b0bb1205258b0d07b9f9672cf965d36
     Pseudo is Ultrasoft + core correction, Zval =  4.0
     Generated using "atomic" code by A. Dal Corso v.5.1
     Using radial grid of 1141 points,  6 beta functions with: 
                l(1) =   0
                l(2) =   0
                l(3) =   1
                l(4) =   1
                l(5) =   2
                l(6) =   2
     Q(r) pseudized with 0 coefficients 


     Mode symmetry, C_3v (3m)   point group:


     Atomic displacements:
     There are   4 irreducible representations

     Representation     1      1 modes -A_1  L_1  To be done

     Representation     2      1 modes -A_1  L_1  To be done

     Representation     3      2 modes -E    L_3  To be done

     Representation     4      2 modes -E    L_3  To be done



     Alpha used in Ewald sum =   0.7000
     PHONON       :     7.08s CPU         8.97s WALL



     Representation #  1 mode #   1

     Self-consistent Calculation

      iter #   1 total cpu time :     9.4 secs   av.it.:   6.1
      thresh= 1.000E-02 alpha_mix =  0.700 |ddv_scf|^2 =  2.470E-03

      iter #   2 total cpu time :     9.9 secs   av.it.:   7.7
      thresh= 4.970E-03 alpha_mix =  0.700 |ddv_scf|^2 =  3.731E-02

      iter #   3 total cpu time :    10.4 secs   av.it.:   6.6
      thresh= 1.000E-02 alpha_mix =  0.700 |ddv_scf|^2 =  1.626E-06

      iter #   4 total cpu time :    10.9 secs   av.it.:   8.2
      thresh= 1.275E-04 alpha_mix =  0.700 |ddv_scf|^2 =  1.129E-07

      iter #   5 total cpu time :    11.4 secs   av.it.:   8.1
      thresh= 3.359E-05 alpha_mix =  0.700 |ddv_scf|^2 =  2.758E-09

      iter #   6 total cpu time :    11.9 secs   av.it.:   8.4
      thresh= 5.252E-06 alpha_mix =  0.700 |ddv_scf|^2 =  5.831E-10

      iter #   7 total cpu time :    12.4 secs   av.it.:   7.6
      thresh= 2.415E-06 alpha_mix =  0.700 |ddv_scf|^2 =  9.879E-10

      iter #   8 total cpu time :    12.9 secs   av.it.:   6.7
      thresh= 3.143E-06 alpha_mix =  0.700 |ddv_scf|^2 =  1.231E-12

      iter #   9 total cpu time :    13.4 secs   av.it.:   8.1
      thresh= 1.109E-07 alpha_mix =  0.700 |ddv_scf|^2 =  7.116E-14

     End of self-consistent calculation

     Convergence has been achieved 


     Representation #  2 mode #   2

     Self-consistent Calculation

      iter #   1 total cpu time :    13.9 secs   av.it.:   6.1
      thresh= 1.000E-02 alpha_mix =  0.700 |ddv_scf|^2 =  2.470E-03

      iter #   2 total cpu time :    14.4 secs   av.it.:   7.7
      thresh= 4.970E-03 alpha_mix =  0.700 |ddv_scf|^2 =  3.731E-02

      iter #   3 total cpu time :    14.8 secs   av.it.:   6.6
      thresh= 1.000E-02 alpha_mix =  0.700 |ddv_scf|^2 =  1.626E-06

      iter #   4 total cpu time :    15.3 secs   av.it.:   8.2
      thresh= 1.275E-04 alpha_mix =  0.700 |ddv_scf|^2 =  1.129E-07

      iter #   5 total cpu time :    15.8 secs   av.it.:   8.2
      thresh= 3.359E-05 alpha_mix =  0.700 |ddv_scf|^2 =  2.758E-09

      iter #   6 total cpu time :    16.4 secs   av.it.:   8.4
      thresh= 5.252E-06 alpha_mix =  0.700 |ddv_scf|^2 =  5.830E-10

      iter #   7 total cpu time :    16.9 secs   av.it.:   7.5
      thresh= 2.415E-06 alpha_mix =  0.700 |ddv_scf|^2 =  9.879E-10

      iter #   8 total cpu time :    17.3 secs   av.it.:   6.7
      thresh= 3.143E-06 alpha_mix =  0.700 |ddv_scf|^2 =  1.231E-12

      iter #   9 total cpu time :    17.9 secs   av.it.:   8.2
      thresh= 1.109E-07 alpha_mix =  0.700 |ddv_scf|^2 =  7.127E-14

     End of self-consistent calculation

     Convergence has been achieved 


     Representation #  3 modes #   3  4

     Self-consistent Calculation

      iter #   1 total cpu time :    18.7 secs   av.it.:   5.6
      thresh= 1.000E-02 alpha_mix =  0.700 |ddv_scf|^2 =  5.359E-07

      iter #   2 total cpu time :    19.9 secs   av.it.:   9.6
      thresh= 7.320E-05 alpha_mix =  0.700 |ddv_scf|^2 =  4.077E-08

      iter #   3 total cpu time :    21.0 secs   av.it.:   9.5
      thresh= 2.019E-05 alpha_mix =  0.700 |ddv_scf|^2 =  2.752E-09

      iter #   4 total cpu time :    22.2 secs   av.it.:   9.3
      thresh= 5.246E-06 alpha_mix =  0.700 |ddv_scf|^2 =  5.124E-12

      iter #   5 total cpu time :    23.3 secs   av.it.:   9.7
      thresh= 2.264E-07 alpha_mix =  0.700 |ddv_scf|^2 =  3.253E-13

     End of self-consistent calculation

     Convergence has been achieved 


     Representation #  4 modes #   5  6

     Self-consistent Calculation

      iter #   1 total cpu time :    24.2 secs   av.it.:   5.4
      thresh= 1.000E-02 alpha_mix =  0.700 |ddv_scf|^2 =  5.359E-07

      iter #   2 total cpu time :    25.3 secs   av.it.:   9.3
      thresh= 7.320E-05 alpha_mix =  0.700 |ddv_scf|^2 =  4.078E-08

      iter #   3 total cpu time :    26.5 secs   av.it.:   9.2
      thresh= 2.019E-05 alpha_mix =  0.700 |ddv_scf|^2 =  2.753E-09

      iter #   4 total cpu time :    27.6 secs   av.it.:   9.1
      thresh= 5.247E-06 alpha_mix =  0.700 |ddv_scf|^2 =  5.113E-12

      iter #   5 total cpu time :    28.7 secs   av.it.:   9.5
      thresh= 2.261E-07 alpha_mix =  0.700 |ddv_scf|^2 =  3.245E-13

     End of self-consistent calculation

     Convergence has been achieved 
 
     Number of q in the star =    8
     List of q in the star:
          1  -0.250000000   0.250000000  -0.250000000
          2   0.250000000  -0.250000000  -0.250000000
          3   0.250000000  -0.250000000   0.250000000
          4   0.250000000   0.250000000   0.250000000
          5  -0.250000000  -0.250000000  -0.250000000
          6  -0.250000000  -0.250000000   0.250000000
          7  -0.250000000   0.250000000   0.250000000
          8   0.250000000   0.250000000  -0.250000000

     Diagonalizing the dynamical matrix

     q = (   -0.250000000   0.250000000  -0.250000000 ) 

 **************************************************************************
     freq (    1) =       2.346501 [THz] =      78.270857 [cm-1]
     freq (    2) =       2.346501 [THz] =      78.270857 [cm-1]
     freq (    3) =       6.644241 [THz] =     221.628016 [cm-1]
     freq (    4) =      14.252201 [THz] =     475.402247 [cm-1]
     freq (    5) =      14.534770 [THz] =     484.827731 [cm-1]
     freq (    6) =      14.534770 [THz] =     484.827731 [cm-1]
 **************************************************************************

     Mode symmetry, C_3v (3m)   point group:

     freq (  1 -  2) =         78.3  [cm-1]   --> E    L_3           
     freq (  3 -  3) =        221.6  [cm-1]   --> A_1  L_1           
     freq (  4 -  4) =        475.4  [cm-1]   --> A_1  L_1           
     freq (  5 -  6) =        484.8  [cm-1]   --> E    L_3           

     Calculation of q =    0.5000000  -0.5000000   0.5000000
 
     G-vector sticks info
     --------------------
     sticks:   dense  smooth     PW     G-vecs:    dense   smooth      PW
     Sum         241     241     97                 2421     2421     645
 

     Title: 
     phonons of Si                                                              


     bravais-lattice index     =            2
     lattice parameter (alat)  =      10.3295  a.u.
     unit-cell volume          =     275.5397 (a.u.)^3
     number of atoms/cell      =            2
     number of atomic types    =            1
     number of electrons       =         8.00
     number of Kohn-Sham states=            4
     kinetic-energy cutoff     =      16.0000  Ry
     charge density cutoff     =      64.0000  Ry
     Exchange-correlation      = PBE ( 1  4  3  4 0 0)

     celldm(1)=  10.329550  celldm(2)=   0.000000  celldm(3)=   0.000000
     celldm(4)=   0.000000  celldm(5)=   0.000000  celldm(6)=   0.000000

     crystal axes: (cart. coord. in units of alat)
               a(1) = (  -0.500000   0.000000   0.500000 )  
               a(2) = (   0.000000   0.500000   0.500000 )  
               a(3) = (  -0.500000   0.500000   0.000000 )  

     reciprocal axes: (cart. coord. in units 2 pi/alat)
               b(1) = ( -1.000000 -1.000000  1.000000 )  
               b(2) = (  1.000000  1.000000  1.000000 )  
               b(3) = ( -1.000000  1.000000 -1.000000 )  


     PseudoPot. # 1 for Si read from file:
     /home/planck/kedar/softwares/SSSP_precision_pseudos/Si.pbe-n-rrkjus_psl.1.0.0.UPF
     MD5 check sum: 0b0bb1205258b0d07b9f9672cf965d36
     Pseudo is Ultrasoft + core correction, Zval =  4.0
     Generated using "atomic" code by A. Dal Corso v.5.1
     Using radial grid of 1141 points,  6 beta functions with: 
                l(1) =   0
                l(2) =   0
                l(3) =   1
                l(4) =   1
                l(5) =   2
                l(6) =   2
     Q(r) pseudized with 0 coefficients 


     atomic species   valence    mass     pseudopotential
        Si             4.00    28.08600     Si( 1.00)

     48 Sym. Ops., with inversion, found



   Cartesian axes

     site n.     atom                  positions (alat units)
         1           Si  tau(   1) = (   0.0000000   0.0000000   0.0000000  )
         2           Si  tau(   2) = (   0.2500000   0.2500000   0.2500000  )

     number of k points=    60
                       cart. coord. in units 2pi/alat
        k(    1) = (  -0.1250000   0.1250000   0.1250000), wk =   0.0468750
        k(    2) = (   0.3750000  -0.3750000   0.6250000), wk =   0.0000000
        k(    3) = (  -0.3750000   0.3750000  -0.1250000), wk =   0.0468750
        k(    4) = (   0.1250000  -0.1250000   0.3750000), wk =   0.0000000
        k(    5) = (   0.3750000  -0.3750000   0.6250000), wk =   0.0468750
        k(    6) = (   0.8750000  -0.8750000   1.1250000), wk =   0.0000000
        k(    7) = (   0.1250000  -0.1250000   0.3750000), wk =   0.0468750
        k(    8) = (   0.6250000  -0.6250000   0.8750000), wk =   0.0000000
        k(    9) = (  -0.1250000   0.6250000   0.1250000), wk =   0.0937500
        k(   10) = (   0.3750000   0.1250000   0.6250000), wk =   0.0000000
        k(   11) = (   0.6250000  -0.1250000   0.8750000), wk =   0.0937500
        k(   12) = (   1.1250000  -0.6250000   1.3750000), wk =   0.0000000
        k(   13) = (   0.3750000   0.1250000   0.6250000), wk =   0.0937500
        k(   14) = (   0.8750000  -0.3750000   1.1250000), wk =   0.0000000
        k(   15) = (  -0.1250000  -0.8750000   0.1250000), wk =   0.0937500
        k(   16) = (   0.3750000  -1.3750000   0.6250000), wk =   0.0000000
        k(   17) = (  -0.3750000   0.3750000   0.3750000), wk =   0.0468750
        k(   18) = (   0.1250000  -0.1250000   0.8750000), wk =   0.0000000
        k(   19) = (   0.3750000  -0.3750000   1.1250000), wk =   0.0468750
        k(   20) = (   0.8750000  -0.8750000   1.6250000), wk =   0.0000000
        k(   21) = (   0.1250000  -0.1250000   0.1250000), wk =   0.0156250
        k(   22) = (   0.6250000  -0.6250000   0.6250000), wk =   0.0000000
        k(   23) = (  -0.3750000  -0.3750000  -0.1250000), wk =   0.0937500
        k(   24) = (   0.1250000  -0.8750000   0.3750000), wk =   0.0000000
        k(   25) = (  -0.1250000  -0.3750000   0.3750000), wk =   0.0468750
        k(   26) = (   0.3750000  -0.8750000   0.8750000), wk =   0.0000000
        k(   27) = (   0.3750000   0.3750000   0.6250000), wk =   0.0937500
        k(   28) = (   0.8750000  -0.1250000   1.1250000), wk =   0.0000000
        k(   29) = (   0.6250000   0.3750000  -0.3750000), wk =   0.0468750
        k(   30) = (   1.1250000  -0.1250000   0.1250000), wk =   0.0000000
        k(   31) = (   0.1250000   0.1250000   0.3750000), wk =   0.0937500
        k(   32) = (   0.6250000  -0.3750000   0.8750000), wk =   0.0000000
        k(   33) = (   0.3750000   0.1250000  -0.1250000), wk =   0.0468750
        k(   34) = (   0.8750000  -0.3750000   0.3750000), wk =   0.0000000
        k(   35) = (  -0.1250000  -0.6250000  -0.1250000), wk =   0.0468750
        k(   36) = (   0.3750000  -1.1250000   0.3750000), wk =   0.0000000
        k(   37) = (   0.1250000  -0.6250000   0.1250000), wk =   0.0468750
        k(   38) = (   0.6250000  -1.1250000   0.6250000), wk =   0.0000000
        k(   39) = (   0.6250000   0.1250000   0.8750000), wk =   0.0937500
        k(   40) = (   1.1250000  -0.3750000   1.3750000), wk =   0.0000000
        k(   41) = (  -0.8750000   0.1250000   0.6250000), wk =   0.0937500
        k(   42) = (  -0.3750000  -0.3750000   1.1250000), wk =   0.0000000
        k(   43) = (   0.8750000   0.1250000  -0.6250000), wk =   0.0937500
        k(   44) = (   1.3750000  -0.3750000  -0.1250000), wk =   0.0000000
        k(   45) = (   0.3750000  -0.1250000   0.6250000), wk =   0.0937500
        k(   46) = (   0.8750000  -0.6250000   1.1250000), wk =   0.0000000
        k(   47) = (  -0.6250000  -0.1250000   0.3750000), wk =   0.0937500
        k(   48) = (  -0.1250000  -0.6250000   0.8750000), wk =   0.0000000
        k(   49) = (   0.6250000  -0.1250000  -0.3750000), wk =   0.0937500
        k(   50) = (   1.1250000  -0.6250000   0.1250000), wk =   0.0000000
        k(   51) = (  -0.1250000   0.8750000  -0.1250000), wk =   0.0468750
        k(   52) = (   0.3750000   0.3750000   0.3750000), wk =   0.0000000
        k(   53) = (   0.1250000   0.8750000   0.1250000), wk =   0.0468750
        k(   54) = (   0.6250000   0.3750000   0.6250000), wk =   0.0000000
        k(   55) = (   0.3750000  -0.3750000   0.3750000), wk =   0.0156250
        k(   56) = (   0.8750000  -0.8750000   0.8750000), wk =   0.0000000
        k(   57) = (   0.3750000   0.3750000   1.1250000), wk =   0.0937500
        k(   58) = (   0.8750000  -0.1250000   1.6250000), wk =   0.0000000
        k(   59) = (   1.1250000   0.3750000  -0.3750000), wk =   0.0468750
        k(   60) = (   1.6250000  -0.1250000   0.1250000), wk =   0.0000000

     Dense  grid:     2421 G-vectors     FFT dimensions: (  20,  20,  20)

     Estimated max dynamical RAM per process >       9.12 MB

     Check: negative/imaginary core charge=   -0.000056    0.000000

     The potential is recalculated from file :
     ./tmp/_ph0/Si1.save/charge-density.dat

     Starting wfcs are    8 atomic wfcs

     Band Structure Calculation
     Davidson diagonalization with overlap

     ethr =  1.25E-10,  avg # of iterations = 13.2

     total cpu time spent up to now is        2.6 secs

     End of band structure calculation

          k =-0.1250 0.1250 0.1250 (   304 PWs)   bands (ev):

    -5.6168   4.4221   5.7347   5.7347

          k = 0.3750-0.3750 0.6250 (   298 PWs)   bands (ev):

    -3.4494  -0.6590   3.7618   4.4751

          k =-0.3750 0.3750-0.1250 (   298 PWs)   bands (ev):

    -4.5899   1.4229   3.7410   5.2509

          k = 0.1250-0.1250 0.3750 (   300 PWs)   bands (ev):

    -5.0889   2.8018   4.7210   4.7867

          k = 0.3750-0.3750 0.6250 (   298 PWs)   bands (ev):

    -3.4494  -0.6590   3.7618   4.4751

          k = 0.8750-0.8750 1.1250 (   304 PWs)   bands (ev):

    -5.6168   4.4221   5.7347   5.7347

          k = 0.1250-0.1250 0.3750 (   300 PWs)   bands (ev):

    -5.0889   2.8018   4.7210   4.7867

          k = 0.6250-0.6250 0.8750 (   298 PWs)   bands (ev):

    -4.5899   1.4229   3.7410   5.2509

          k =-0.1250 0.6250 0.1250 (   303 PWs)   bands (ev):

    -4.0577   1.0891   3.3904   3.8429

          k = 0.3750 0.1250 0.6250 (   296 PWs)   bands (ev):

    -3.6415   0.2144   2.7478   4.1192

          k = 0.6250-0.1250 0.8750 (   295 PWs)   bands (ev):

    -2.4168  -0.8747   2.0332   3.1113

          k = 1.1250-0.6250 1.3750 (   298 PWs)   bands (ev):

    -4.5899   1.4229   3.7410   5.2509

          k = 0.3750 0.1250 0.6250 (   296 PWs)   bands (ev):

    -3.6415   0.2144   2.7478   4.1192

          k = 0.8750-0.3750 1.1250 (   303 PWs)   bands (ev):

    -4.0577   1.0891   3.3904   3.8429

          k =-0.1250-0.8750 0.1250 (   297 PWs)   bands (ev):

    -2.5851  -0.7773   2.6436   3.3735

          k = 0.3750-1.3750 0.6250 (   298 PWs)   bands (ev):

    -3.4494  -0.6590   3.7618   4.4751

          k =-0.3750 0.3750 0.3750 (   296 PWs)   bands (ev):

    -4.1569   0.1299   4.9423   4.9423

          k = 0.1250-0.1250 0.8750 (   297 PWs)   bands (ev):

    -2.5851  -0.7773   2.6436   3.3735

          k = 0.3750-0.3750 1.1250 (   293 PWs)   bands (ev):

    -2.9537  -0.5728   2.0923   4.1566

          k = 0.8750-0.8750 1.6250 (   303 PWs)   bands (ev):

    -4.0577   1.0891   3.3904   3.8429

          k = 0.1250-0.1250 0.1250 (   304 PWs)   bands (ev):

    -5.6168   4.4221   5.7347   5.7347

          k = 0.6250-0.6250 0.6250 (   296 PWs)   bands (ev):

    -4.1569   0.1299   4.9423   4.9423

          k =-0.3750-0.3750-0.1250 (   298 PWs)   bands (ev):

    -4.5899   1.4229   3.7410   5.2509

          k = 0.1250-0.8750 0.3750 (   295 PWs)   bands (ev):

    -2.4168  -0.8747   2.0332   3.1113

          k =-0.1250-0.3750 0.3750 (   298 PWs)   bands (ev):

    -4.5899   1.4229   3.7410   5.2509

          k = 0.3750-0.8750 0.8750 (   303 PWs)   bands (ev):

    -4.0577   1.0891   3.3904   3.8429

          k = 0.3750 0.3750 0.6250 (   298 PWs)   bands (ev):

    -3.4494  -0.6590   3.7618   4.4751

          k = 0.8750-0.1250 1.1250 (   297 PWs)   bands (ev):

    -2.5851  -0.7773   2.6436   3.3735

          k = 0.6250 0.3750-0.3750 (   298 PWs)   bands (ev):

    -3.4494  -0.6590   3.7618   4.4751

          k = 1.1250-0.1250 0.1250 (   297 PWs)   bands (ev):

    -2.5851  -0.7773   2.6436   3.3735

          k = 0.1250 0.1250 0.3750 (   300 PWs)   bands (ev):

    -5.0889   2.8018   4.7210   4.7867

          k = 0.6250-0.3750 0.8750 (   296 PWs)   bands (ev):

    -3.6415   0.2144   2.7478   4.1192

          k = 0.3750 0.1250-0.1250 (   300 PWs)   bands (ev):

    -5.0889   2.8018   4.7210   4.7867

          k = 0.8750-0.3750 0.3750 (   293 PWs)   bands (ev):

    -2.9537  -0.5728   2.0923   4.1566

          k =-0.1250-0.6250-0.1250 (   303 PWs)   bands (ev):

    -4.0577   1.0891   3.3904   3.8429

          k = 0.3750-1.1250 0.3750 (   293 PWs)   bands (ev):

    -2.9537  -0.5728   2.0923   4.1566

          k = 0.1250-0.6250 0.1250 (   303 PWs)   bands (ev):

    -4.0577   1.0891   3.3904   3.8429

          k = 0.6250-1.1250 0.6250 (   298 PWs)   bands (ev):

    -4.5899   1.4229   3.7410   5.2509

          k = 0.6250 0.1250 0.8750 (   295 PWs)   bands (ev):

    -2.4168  -0.8747   2.0332   3.1113

          k = 1.1250-0.3750 1.3750 (   296 PWs)   bands (ev):

    -3.6415   0.2144   2.7478   4.1192

          k =-0.8750 0.1250 0.6250 (   295 PWs)   bands (ev):

    -2.4168  -0.8747   2.0332   3.1113

          k =-0.3750-0.3750 1.1250 (   293 PWs)   bands (ev):

    -2.9537  -0.5728   2.0923   4.1566

          k = 0.8750 0.1250-0.6250 (   295 PWs)   bands (ev):

    -2.4168  -0.8747   2.0332   3.1113

          k = 1.3750-0.3750-0.1250 (   296 PWs)   bands (ev):

    -3.6415   0.2144   2.7478   4.1192

          k = 0.3750-0.1250 0.6250 (   296 PWs)   bands (ev):

    -3.6415   0.2144   2.7478   4.1192

          k = 0.8750-0.6250 1.1250 (   300 PWs)   bands (ev):

    -5.0889   2.8018   4.7210   4.7867

          k =-0.6250-0.1250 0.3750 (   296 PWs)   bands (ev):

    -3.6415   0.2144   2.7478   4.1192

          k =-0.1250-0.6250 0.8750 (   295 PWs)   bands (ev):

    -2.4168  -0.8747   2.0332   3.1113

          k = 0.6250-0.1250-0.3750 (   296 PWs)   bands (ev):

    -3.6415   0.2144   2.7478   4.1192

          k = 1.1250-0.6250 0.1250 (   295 PWs)   bands (ev):

    -2.4168  -0.8747   2.0332   3.1113

          k =-0.1250 0.8750-0.1250 (   297 PWs)   bands (ev):

    -2.5851  -0.7773   2.6436   3.3735

          k = 0.3750 0.3750 0.3750 (   296 PWs)   bands (ev):

    -4.1569   0.1299   4.9423   4.9423

          k = 0.1250 0.8750 0.1250 (   297 PWs)   bands (ev):

    -2.5851  -0.7773   2.6436   3.3735

          k = 0.6250 0.3750 0.6250 (   298 PWs)   bands (ev):

    -3.4494  -0.6590   3.7618   4.4751

          k = 0.3750-0.3750 0.3750 (   296 PWs)   bands (ev):

    -4.1569   0.1299   4.9423   4.9423

          k = 0.8750-0.8750 0.8750 (   304 PWs)   bands (ev):

    -5.6168   4.4221   5.7347   5.7347

          k = 0.3750 0.3750 1.1250 (   293 PWs)   bands (ev):

    -2.9537  -0.5728   2.0923   4.1566

          k = 0.8750-0.1250 1.6250 (   295 PWs)   bands (ev):

    -2.4168  -0.8747   2.0332   3.1113

          k = 1.1250 0.3750-0.3750 (   293 PWs)   bands (ev):

    -2.9537  -0.5728   2.0923   4.1566

          k = 1.6250-0.1250 0.1250 (   300 PWs)   bands (ev):

    -5.0889   2.8018   4.7210   4.7867

     highest occupied level (ev):     5.7347

     Writing output data file Si1.save/

     phonons of Si                                                              

     bravais-lattice index     =            2
     lattice parameter (alat)  =      10.3295  a.u.
     unit-cell volume          =     275.5397 (a.u.)^3
     number of atoms/cell      =            2
     number of atomic types    =            1
     kinetic-energy cut-off    =      16.0000  Ry
     charge density cut-off    =      64.0000  Ry
     convergence threshold     =      1.0E-12
     beta                      =       0.7000
     number of iterations used =            4
     Exchange-correlation      = PBE ( 1  4  3  4 0 0)


     celldm(1)=   10.32955  celldm(2)=    0.00000  celldm(3)=    0.00000
     celldm(4)=    0.00000  celldm(5)=    0.00000  celldm(6)=    0.00000

     crystal axes: (cart. coord. in units of alat)
               a(1) = ( -0.5000  0.0000  0.5000 )  
               a(2) = (  0.0000  0.5000  0.5000 )  
               a(3) = ( -0.5000  0.5000  0.0000 )  

     reciprocal axes: (cart. coord. in units 2 pi/alat)
               b(1) = ( -1.0000 -1.0000  1.0000 )  
               b(2) = (  1.0000  1.0000  1.0000 )  
               b(3) = ( -1.0000  1.0000 -1.0000 )  


     Atoms inside the unit cell: 

     Cartesian axes

     site n.  atom      mass           positions (alat units)
        1     Si  28.0860   tau(    1) = (    0.00000    0.00000    0.00000  )
        2     Si  28.0860   tau(    2) = (    0.25000    0.25000    0.25000  )

     Computing dynamical matrix for 
                    q = (   0.5000000  -0.5000000   0.5000000 )
 
     13 Sym.Ops. (with q -> -q+G )


     G cutoff =  172.9749  (   2421 G-vectors)     FFT grid: ( 20, 20, 20)
     number of k points=    60

     PseudoPot. # 1 for Si read from file:
     /home/planck/kedar/softwares/SSSP_precision_pseudos/Si.pbe-n-rrkjus_psl.1.0.0.UPF
     MD5 check sum: 0b0bb1205258b0d07b9f9672cf965d36
     Pseudo is Ultrasoft + core correction, Zval =  4.0
     Generated using "atomic" code by A. Dal Corso v.5.1
     Using radial grid of 1141 points,  6 beta functions with: 
                l(1) =   0
                l(2) =   0
                l(3) =   1
                l(4) =   1
                l(5) =   2
                l(6) =   2
     Q(r) pseudized with 0 coefficients 



     Atomic displacements:
     There are   4 irreducible representations

     Representation     1      1 modes -  To be done

     Representation     2      1 modes -  To be done

     Representation     3      2 modes -  To be done

     Representation     4      2 modes -  To be done



     Alpha used in Ewald sum =   0.7000
     PHONON       :    23.73s CPU        30.07s WALL



     Representation #  1 mode #   1

     Self-consistent Calculation

      iter #   1 total cpu time :    30.3 secs   av.it.:   5.2
      thresh= 1.000E-02 alpha_mix =  0.700 |ddv_scf|^2 =  2.503E-05

      iter #   2 total cpu time :    30.6 secs   av.it.:   8.3
      thresh= 5.003E-04 alpha_mix =  0.700 |ddv_scf|^2 =  2.224E-05

      iter #   3 total cpu time :    30.8 secs   av.it.:   7.7
      thresh= 4.716E-04 alpha_mix =  0.700 |ddv_scf|^2 =  3.552E-08

      iter #   4 total cpu time :    31.1 secs   av.it.:   8.0
      thresh= 1.885E-05 alpha_mix =  0.700 |ddv_scf|^2 =  1.287E-10

      iter #   5 total cpu time :    31.4 secs   av.it.:   8.1
      thresh= 1.135E-06 alpha_mix =  0.700 |ddv_scf|^2 =  3.186E-12

      iter #   6 total cpu time :    31.6 secs   av.it.:   8.1
      thresh= 1.785E-07 alpha_mix =  0.700 |ddv_scf|^2 =  6.822E-14

     End of self-consistent calculation

     Convergence has been achieved 


     Representation #  2 mode #   2

     Self-consistent Calculation

      iter #   1 total cpu time :    31.9 secs   av.it.:   6.2
      thresh= 1.000E-02 alpha_mix =  0.700 |ddv_scf|^2 =  3.427E-04

      iter #   2 total cpu time :    32.2 secs   av.it.:   8.4
      thresh= 1.851E-03 alpha_mix =  0.700 |ddv_scf|^2 =  1.058E-03

      iter #   3 total cpu time :    32.4 secs   av.it.:   7.3
      thresh= 3.253E-03 alpha_mix =  0.700 |ddv_scf|^2 =  1.143E-07

      iter #   4 total cpu time :    32.7 secs   av.it.:   8.4
      thresh= 3.381E-05 alpha_mix =  0.700 |ddv_scf|^2 =  7.606E-09

      iter #   5 total cpu time :    33.0 secs   av.it.:   8.7
      thresh= 8.721E-06 alpha_mix =  0.700 |ddv_scf|^2 =  1.178E-10

      iter #   6 total cpu time :    33.3 secs   av.it.:   8.5
      thresh= 1.085E-06 alpha_mix =  0.700 |ddv_scf|^2 =  1.927E-12

      iter #   7 total cpu time :    33.6 secs   av.it.:   8.1
      thresh= 1.388E-07 alpha_mix =  0.700 |ddv_scf|^2 =  1.625E-14

     End of self-consistent calculation

     Convergence has been achieved 


     Representation #  3 modes #   3  4

     Self-consistent Calculation

      iter #   1 total cpu time :    34.0 secs   av.it.:   5.5
      thresh= 1.000E-02 alpha_mix =  0.700 |ddv_scf|^2 =  9.027E-07

      iter #   2 total cpu time :    34.6 secs   av.it.:   9.6
      thresh= 9.501E-05 alpha_mix =  0.700 |ddv_scf|^2 =  7.793E-08

      iter #   3 total cpu time :    35.2 secs   av.it.:   9.4
      thresh= 2.792E-05 alpha_mix =  0.700 |ddv_scf|^2 =  4.237E-09

      iter #   4 total cpu time :    35.8 secs   av.it.:   9.0
      thresh= 6.509E-06 alpha_mix =  0.700 |ddv_scf|^2 =  3.041E-12

      iter #   5 total cpu time :    36.4 secs   av.it.:   9.5
      thresh= 1.744E-07 alpha_mix =  0.700 |ddv_scf|^2 =  4.818E-14

     End of self-consistent calculation

     Convergence has been achieved 


     Representation #  4 modes #   5  6

     Self-consistent Calculation

      iter #   1 total cpu time :    36.8 secs   av.it.:   5.2
      thresh= 1.000E-02 alpha_mix =  0.700 |ddv_scf|^2 =  3.418E-07

      iter #   2 total cpu time :    37.4 secs   av.it.:   9.1
      thresh= 5.847E-05 alpha_mix =  0.700 |ddv_scf|^2 =  2.559E-08

      iter #   3 total cpu time :    38.0 secs   av.it.:   8.9
      thresh= 1.600E-05 alpha_mix =  0.700 |ddv_scf|^2 =  2.125E-10

      iter #   4 total cpu time :    38.6 secs   av.it.:   9.3
      thresh= 1.458E-06 alpha_mix =  0.700 |ddv_scf|^2 =  2.752E-12

      iter #   5 total cpu time :    39.2 secs   av.it.:   9.5
      thresh= 1.659E-07 alpha_mix =  0.700 |ddv_scf|^2 =  4.806E-14

     End of self-consistent calculation

     Convergence has been achieved 
 
     Number of q in the star =    4
     List of q in the star:
          1   0.500000000  -0.500000000   0.500000000
          2   0.500000000   0.500000000   0.500000000
          3  -0.500000000   0.500000000   0.500000000
          4   0.500000000   0.500000000  -0.500000000

     Diagonalizing the dynamical matrix

     q = (    0.500000000  -0.500000000   0.500000000 ) 

 **************************************************************************
     freq (    1) =       3.090141 [THz] =     103.076022 [cm-1]
     freq (    2) =       3.090141 [THz] =     103.076022 [cm-1]
     freq (    3) =      11.158276 [THz] =     372.200020 [cm-1]
     freq (    4) =      12.096947 [THz] =     403.510707 [cm-1]
     freq (    5) =      14.353342 [THz] =     478.775962 [cm-1]
     freq (    6) =      14.353342 [THz] =     478.775962 [cm-1]
 **************************************************************************

     Calculation of q =    0.0000000   0.5000000   0.0000000
 
     G-vector sticks info
     --------------------
     sticks:   dense  smooth     PW     G-vecs:    dense   smooth      PW
     Sum         241     241     91                 2421     2421     609
 

     Title: 
     phonons of Si                                                              


     bravais-lattice index     =            2
     lattice parameter (alat)  =      10.3295  a.u.
     unit-cell volume          =     275.5397 (a.u.)^3
     number of atoms/cell      =            2
     number of atomic types    =            1
     number of electrons       =         8.00
     number of Kohn-Sham states=            4
     kinetic-energy cutoff     =      16.0000  Ry
     charge density cutoff     =      64.0000  Ry
     Exchange-correlation      = PBE ( 1  4  3  4 0 0)

     celldm(1)=  10.329550  celldm(2)=   0.000000  celldm(3)=   0.000000
     celldm(4)=   0.000000  celldm(5)=   0.000000  celldm(6)=   0.000000

     crystal axes: (cart. coord. in units of alat)
               a(1) = (  -0.500000   0.000000   0.500000 )  
               a(2) = (   0.000000   0.500000   0.500000 )  
               a(3) = (  -0.500000   0.500000   0.000000 )  

     reciprocal axes: (cart. coord. in units 2 pi/alat)
               b(1) = ( -1.000000 -1.000000  1.000000 )  
               b(2) = (  1.000000  1.000000  1.000000 )  
               b(3) = ( -1.000000  1.000000 -1.000000 )  


     PseudoPot. # 1 for Si read from file:
     /home/planck/kedar/softwares/SSSP_precision_pseudos/Si.pbe-n-rrkjus_psl.1.0.0.UPF
     MD5 check sum: 0b0bb1205258b0d07b9f9672cf965d36
     Pseudo is Ultrasoft + core correction, Zval =  4.0
     Generated using "atomic" code by A. Dal Corso v.5.1
     Using radial grid of 1141 points,  6 beta functions with: 
                l(1) =   0
                l(2) =   0
                l(3) =   1
                l(4) =   1
                l(5) =   2
                l(6) =   2
     Q(r) pseudized with 0 coefficients 


     atomic species   valence    mass     pseudopotential
        Si             4.00    28.08600     Si( 1.00)

     48 Sym. Ops., with inversion, found



   Cartesian axes

     site n.     atom                  positions (alat units)
         1           Si  tau(   1) = (   0.0000000   0.0000000   0.0000000  )
         2           Si  tau(   2) = (   0.2500000   0.2500000   0.2500000  )

     number of k points=    80
                       cart. coord. in units 2pi/alat
        k(    1) = (  -0.1250000   0.1250000   0.1250000), wk =   0.0312500
        k(    2) = (  -0.1250000   0.6250000   0.1250000), wk =   0.0000000
        k(    3) = (  -0.3750000   0.3750000  -0.1250000), wk =   0.0625000
        k(    4) = (  -0.3750000   0.8750000  -0.1250000), wk =   0.0000000
        k(    5) = (   0.3750000  -0.3750000   0.6250000), wk =   0.0625000
        k(    6) = (   0.3750000   0.1250000   0.6250000), wk =   0.0000000
        k(    7) = (   0.1250000  -0.1250000   0.3750000), wk =   0.0625000
        k(    8) = (   0.1250000   0.3750000   0.3750000), wk =   0.0000000
        k(    9) = (  -0.1250000   0.6250000   0.1250000), wk =   0.0312500
        k(   10) = (  -0.1250000   1.1250000   0.1250000), wk =   0.0000000
        k(   11) = (   0.6250000  -0.1250000   0.8750000), wk =   0.0625000
        k(   12) = (   0.6250000   0.3750000   0.8750000), wk =   0.0000000
        k(   13) = (   0.3750000   0.1250000   0.6250000), wk =   0.0625000
        k(   14) = (   0.3750000   0.6250000   0.6250000), wk =   0.0000000
        k(   15) = (  -0.1250000  -0.8750000   0.1250000), wk =   0.0312500
        k(   16) = (  -0.1250000  -0.3750000   0.1250000), wk =   0.0000000
        k(   17) = (  -0.3750000   0.3750000   0.3750000), wk =   0.0312500
        k(   18) = (  -0.3750000   0.8750000   0.3750000), wk =   0.0000000
        k(   19) = (   0.3750000  -0.3750000   1.1250000), wk =   0.0625000
        k(   20) = (   0.3750000   0.1250000   1.1250000), wk =   0.0000000
        k(   21) = (  -0.1250000  -0.1250000   0.1250000), wk =   0.0312500
        k(   22) = (  -0.1250000   0.3750000   0.1250000), wk =   0.0000000
        k(   23) = (   0.1250000  -0.3750000   0.3750000), wk =   0.0625000
        k(   24) = (   0.1250000   0.1250000   0.3750000), wk =   0.0000000
        k(   25) = (   0.3750000  -0.1250000   0.3750000), wk =   0.0312500
        k(   26) = (   0.3750000   0.3750000   0.3750000), wk =   0.0000000
        k(   27) = (   0.3750000   0.1250000   0.3750000), wk =   0.0312500
        k(   28) = (   0.3750000   0.6250000   0.3750000), wk =   0.0000000
        k(   29) = (  -0.6250000   0.3750000  -0.3750000), wk =   0.0625000
        k(   30) = (  -0.6250000   0.8750000  -0.3750000), wk =   0.0000000
        k(   31) = (  -0.3750000   0.6250000  -0.3750000), wk =   0.0312500
        k(   32) = (  -0.3750000   1.1250000  -0.3750000), wk =   0.0000000
        k(   33) = (  -0.3750000  -0.6250000  -0.3750000), wk =   0.0312500
        k(   34) = (  -0.3750000  -0.1250000  -0.3750000), wk =   0.0000000
        k(   35) = (  -0.3750000   0.1250000  -0.1250000), wk =   0.0625000
        k(   36) = (  -0.3750000   0.6250000  -0.1250000), wk =   0.0000000
        k(   37) = (  -0.1250000   0.3750000  -0.1250000), wk =   0.0312500
        k(   38) = (  -0.1250000   0.8750000  -0.1250000), wk =   0.0000000
        k(   39) = (  -0.1250000  -0.3750000  -0.1250000), wk =   0.0312500
        k(   40) = (  -0.1250000   0.1250000  -0.1250000), wk =   0.0000000
        k(   41) = (  -0.1250000  -0.6250000   0.1250000), wk =   0.0312500
        k(   42) = (  -0.1250000  -0.1250000   0.1250000), wk =   0.0000000
        k(   43) = (   0.6250000  -0.1250000  -0.1250000), wk =   0.0625000
        k(   44) = (   0.6250000   0.3750000  -0.1250000), wk =   0.0000000
        k(   45) = (   0.6250000   0.1250000   0.1250000), wk =   0.0625000
        k(   46) = (   0.6250000   0.6250000   0.1250000), wk =   0.0000000
        k(   47) = (  -0.8750000   0.1250000  -0.6250000), wk =   0.0625000
        k(   48) = (  -0.8750000   0.6250000  -0.6250000), wk =   0.0000000
        k(   49) = (  -0.1250000   0.6250000  -0.8750000), wk =   0.0625000
        k(   50) = (  -0.1250000   1.1250000  -0.8750000), wk =   0.0000000
        k(   51) = (  -0.1250000   0.8750000  -0.6250000), wk =   0.0625000
        k(   52) = (  -0.1250000   1.3750000  -0.6250000), wk =   0.0000000
        k(   53) = (  -0.1250000  -0.8750000  -0.6250000), wk =   0.0625000
        k(   54) = (  -0.1250000  -0.3750000  -0.6250000), wk =   0.0000000
        k(   55) = (   0.8750000  -0.6250000   0.1250000), wk =   0.0625000
        k(   56) = (   0.8750000  -0.1250000   0.1250000), wk =   0.0000000
        k(   57) = (  -0.6250000  -0.1250000  -0.3750000), wk =   0.0625000
        k(   58) = (  -0.6250000   0.3750000  -0.3750000), wk =   0.0000000
        k(   59) = (   0.1250000   0.3750000  -0.6250000), wk =   0.0625000
        k(   60) = (   0.1250000   0.8750000  -0.6250000), wk =   0.0000000
        k(   61) = (   0.1250000   0.6250000  -0.3750000), wk =   0.0625000
        k(   62) = (   0.1250000   1.1250000  -0.3750000), wk =   0.0000000
        k(   63) = (   0.1250000  -0.6250000  -0.3750000), wk =   0.0625000
        k(   64) = (   0.1250000  -0.1250000  -0.3750000), wk =   0.0000000
        k(   65) = (   0.6250000  -0.3750000  -0.1250000), wk =   0.0625000
        k(   66) = (   0.6250000   0.1250000  -0.1250000), wk =   0.0000000
        k(   67) = (  -0.1250000   0.8750000   0.1250000), wk =   0.0312500
        k(   68) = (  -0.1250000   1.3750000   0.1250000), wk =   0.0000000
        k(   69) = (  -0.8750000  -0.1250000  -0.1250000), wk =   0.0625000
        k(   70) = (  -0.8750000   0.3750000  -0.1250000), wk =   0.0000000
        k(   71) = (  -0.8750000   0.1250000   0.1250000), wk =   0.0625000
        k(   72) = (  -0.8750000   0.6250000   0.1250000), wk =   0.0000000
        k(   73) = (  -0.3750000  -0.3750000   0.3750000), wk =   0.0312500
        k(   74) = (  -0.3750000   0.1250000   0.3750000), wk =   0.0000000
        k(   75) = (  -1.1250000   0.3750000  -0.3750000), wk =   0.0625000
        k(   76) = (  -1.1250000   0.8750000  -0.3750000), wk =   0.0000000
        k(   77) = (  -0.3750000   1.1250000  -0.3750000), wk =   0.0312500
        k(   78) = (  -0.3750000   1.6250000  -0.3750000), wk =   0.0000000
        k(   79) = (  -0.3750000  -1.1250000  -0.3750000), wk =   0.0312500
        k(   80) = (  -0.3750000  -0.6250000  -0.3750000), wk =   0.0000000

     Dense  grid:     2421 G-vectors     FFT dimensions: (  20,  20,  20)

     Estimated max dynamical RAM per process >       9.09 MB

     Check: negative/imaginary core charge=   -0.000056    0.000000

     The potential is recalculated from file :
     ./tmp/_ph0/Si1.save/charge-density.dat

     Starting wfcs are    8 atomic wfcs

     Band Structure Calculation
     Davidson diagonalization with overlap

     ethr =  1.25E-10,  avg # of iterations = 13.2

     total cpu time spent up to now is        3.8 secs

     End of band structure calculation

          k =-0.1250 0.1250 0.1250 (   304 PWs)   bands (ev):

    -5.6168   4.4221   5.7347   5.7347

          k =-0.1250 0.6250 0.1250 (   303 PWs)   bands (ev):

    -4.0577   1.0891   3.3904   3.8429

          k =-0.3750 0.3750-0.1250 (   298 PWs)   bands (ev):

    -4.5899   1.4229   3.7410   5.2509

          k =-0.3750 0.8750-0.1250 (   295 PWs)   bands (ev):

    -2.4168  -0.8747   2.0332   3.1113

          k = 0.3750-0.3750 0.6250 (   298 PWs)   bands (ev):

    -3.4494  -0.6590   3.7618   4.4751

          k = 0.3750 0.1250 0.6250 (   296 PWs)   bands (ev):

    -3.6415   0.2144   2.7478   4.1192

          k = 0.1250-0.1250 0.3750 (   300 PWs)   bands (ev):

    -5.0889   2.8018   4.7210   4.7867

          k = 0.1250 0.3750 0.3750 (   298 PWs)   bands (ev):

    -4.5899   1.4229   3.7410   5.2509

          k =-0.1250 0.6250 0.1250 (   303 PWs)   bands (ev):

    -4.0577   1.0891   3.3904   3.8429

          k =-0.1250 1.1250 0.1250 (   297 PWs)   bands (ev):

    -2.5851  -0.7773   2.6436   3.3735

          k = 0.6250-0.1250 0.8750 (   295 PWs)   bands (ev):

    -2.4168  -0.8747   2.0332   3.1113

          k = 0.6250 0.3750 0.8750 (   296 PWs)   bands (ev):

    -3.6415   0.2144   2.7478   4.1192

          k = 0.3750 0.1250 0.6250 (   296 PWs)   bands (ev):

    -3.6415   0.2144   2.7478   4.1192

          k = 0.3750 0.6250 0.6250 (   298 PWs)   bands (ev):

    -3.4494  -0.6590   3.7618   4.4751

          k =-0.1250-0.8750 0.1250 (   297 PWs)   bands (ev):

    -2.5851  -0.7773   2.6436   3.3735

          k =-0.1250-0.3750 0.1250 (   300 PWs)   bands (ev):

    -5.0889   2.8018   4.7210   4.7867

          k =-0.3750 0.3750 0.3750 (   296 PWs)   bands (ev):

    -4.1569   0.1299   4.9423   4.9423

          k =-0.3750 0.8750 0.3750 (   293 PWs)   bands (ev):

    -2.9537  -0.5728   2.0923   4.1566

          k = 0.3750-0.3750 1.1250 (   293 PWs)   bands (ev):

    -2.9537  -0.5728   2.0923   4.1566

          k = 0.3750 0.1250 1.1250 (   295 PWs)   bands (ev):

    -2.4168  -0.8747   2.0332   3.1113

          k =-0.1250-0.1250 0.1250 (   304 PWs)   bands (ev):

    -5.6168   4.4221   5.7347   5.7347

          k =-0.1250 0.3750 0.1250 (   300 PWs)   bands (ev):

    -5.0889   2.8018   4.7210   4.7867

          k = 0.1250-0.3750 0.3750 (   298 PWs)   bands (ev):

    -4.5899   1.4229   3.7410   5.2509

          k = 0.1250 0.1250 0.3750 (   300 PWs)   bands (ev):

    -5.0889   2.8018   4.7210   4.7867

          k = 0.3750-0.1250 0.3750 (   298 PWs)   bands (ev):

    -4.5899   1.4229   3.7410   5.2509

          k = 0.3750 0.3750 0.3750 (   296 PWs)   bands (ev):

    -4.1569   0.1299   4.9423   4.9423

          k = 0.3750 0.1250 0.3750 (   298 PWs)   bands (ev):

    -4.5899   1.4229   3.7410   5.2509

          k = 0.3750 0.6250 0.3750 (   298 PWs)   bands (ev):

    -3.4494  -0.6590   3.7618   4.4751

          k =-0.6250 0.3750-0.3750 (   298 PWs)   bands (ev):

    -3.4494  -0.6590   3.7618   4.4751

          k =-0.6250 0.8750-0.3750 (   296 PWs)   bands (ev):

    -3.6415   0.2144   2.7478   4.1192

          k =-0.3750 0.6250-0.3750 (   298 PWs)   bands (ev):

    -3.4494  -0.6590   3.7618   4.4751

          k =-0.3750 1.1250-0.3750 (   293 PWs)   bands (ev):

    -2.9537  -0.5728   2.0923   4.1566

          k =-0.3750-0.6250-0.3750 (   298 PWs)   bands (ev):

    -3.4494  -0.6590   3.7618   4.4751

          k =-0.3750-0.1250-0.3750 (   298 PWs)   bands (ev):

    -4.5899   1.4229   3.7410   5.2509

          k =-0.3750 0.1250-0.1250 (   300 PWs)   bands (ev):

    -5.0889   2.8018   4.7210   4.7867

          k =-0.3750 0.6250-0.1250 (   296 PWs)   bands (ev):

    -3.6415   0.2144   2.7478   4.1192

          k =-0.1250 0.3750-0.1250 (   300 PWs)   bands (ev):

    -5.0889   2.8018   4.7210   4.7867

          k =-0.1250 0.8750-0.1250 (   297 PWs)   bands (ev):

    -2.5851  -0.7773   2.6436   3.3735

          k =-0.1250-0.3750-0.1250 (   300 PWs)   bands (ev):

    -5.0889   2.8018   4.7210   4.7867

          k =-0.1250 0.1250-0.1250 (   304 PWs)   bands (ev):

    -5.6168   4.4221   5.7347   5.7347

          k =-0.1250-0.6250 0.1250 (   303 PWs)   bands (ev):

    -4.0577   1.0891   3.3904   3.8429

          k =-0.1250-0.1250 0.1250 (   304 PWs)   bands (ev):

    -5.6168   4.4221   5.7347   5.7347

          k = 0.6250-0.1250-0.1250 (   303 PWs)   bands (ev):

    -4.0577   1.0891   3.3904   3.8429

          k = 0.6250 0.3750-0.1250 (   296 PWs)   bands (ev):

    -3.6415   0.2144   2.7478   4.1192

          k = 0.6250 0.1250 0.1250 (   303 PWs)   bands (ev):

    -4.0577   1.0891   3.3904   3.8429

          k = 0.6250 0.6250 0.1250 (   293 PWs)   bands (ev):

    -2.9537  -0.5728   2.0923   4.1566

          k =-0.8750 0.1250-0.6250 (   295 PWs)   bands (ev):

    -2.4168  -0.8747   2.0332   3.1113

          k =-0.8750 0.6250-0.6250 (   298 PWs)   bands (ev):

    -4.5899   1.4229   3.7410   5.2509

          k =-0.1250 0.6250-0.8750 (   295 PWs)   bands (ev):

    -2.4168  -0.8747   2.0332   3.1113

          k =-0.1250 1.1250-0.8750 (   297 PWs)   bands (ev):

    -2.5851  -0.7773   2.6436   3.3735

          k =-0.1250 0.8750-0.6250 (   295 PWs)   bands (ev):

    -2.4168  -0.8747   2.0332   3.1113

          k =-0.1250 1.3750-0.6250 (   293 PWs)   bands (ev):

    -2.9537  -0.5728   2.0923   4.1566

          k =-0.1250-0.8750-0.6250 (   295 PWs)   bands (ev):

    -2.4168  -0.8747   2.0332   3.1113

          k =-0.1250-0.3750-0.6250 (   296 PWs)   bands (ev):

    -3.6415   0.2144   2.7478   4.1192

          k = 0.8750-0.6250 0.1250 (   295 PWs)   bands (ev):

    -2.4168  -0.8747   2.0332   3.1113

          k = 0.8750-0.1250 0.1250 (   297 PWs)   bands (ev):

    -2.5851  -0.7773   2.6436   3.3735

          k =-0.6250-0.1250-0.3750 (   296 PWs)   bands (ev):

    -3.6415   0.2144   2.7478   4.1192

          k =-0.6250 0.3750-0.3750 (   298 PWs)   bands (ev):

    -3.4494  -0.6590   3.7618   4.4751

          k = 0.1250 0.3750-0.6250 (   296 PWs)   bands (ev):

    -3.6415   0.2144   2.7478   4.1192

          k = 0.1250 0.8750-0.6250 (   295 PWs)   bands (ev):

    -2.4168  -0.8747   2.0332   3.1113

          k = 0.1250 0.6250-0.3750 (   296 PWs)   bands (ev):

    -3.6415   0.2144   2.7478   4.1192

          k = 0.1250 1.1250-0.3750 (   295 PWs)   bands (ev):

    -2.4168  -0.8747   2.0332   3.1113

          k = 0.1250-0.6250-0.3750 (   296 PWs)   bands (ev):

    -3.6415   0.2144   2.7478   4.1192

          k = 0.1250-0.1250-0.3750 (   300 PWs)   bands (ev):

    -5.0889   2.8018   4.7210   4.7867

          k = 0.6250-0.3750-0.1250 (   296 PWs)   bands (ev):

    -3.6415   0.2144   2.7478   4.1192

          k = 0.6250 0.1250-0.1250 (   303 PWs)   bands (ev):

    -4.0577   1.0891   3.3904   3.8429

          k =-0.1250 0.8750 0.1250 (   297 PWs)   bands (ev):

    -2.5851  -0.7773   2.6436   3.3735

          k =-0.1250 1.3750 0.1250 (   303 PWs)   bands (ev):

    -4.0577   1.0891   3.3904   3.8429

          k =-0.8750-0.1250-0.1250 (   297 PWs)   bands (ev):

    -2.5851  -0.7773   2.6436   3.3735

          k =-0.8750 0.3750-0.1250 (   295 PWs)   bands (ev):

    -2.4168  -0.8747   2.0332   3.1113

          k =-0.8750 0.1250 0.1250 (   297 PWs)   bands (ev):

    -2.5851  -0.7773   2.6436   3.3735

          k =-0.8750 0.6250 0.1250 (   295 PWs)   bands (ev):

    -2.4168  -0.8747   2.0332   3.1113

          k =-0.3750-0.3750 0.3750 (   296 PWs)   bands (ev):

    -4.1569   0.1299   4.9423   4.9423

          k =-0.3750 0.1250 0.3750 (   298 PWs)   bands (ev):

    -4.5899   1.4229   3.7410   5.2509

          k =-1.1250 0.3750-0.3750 (   293 PWs)   bands (ev):

    -2.9537  -0.5728   2.0923   4.1566

          k =-1.1250 0.8750-0.3750 (   303 PWs)   bands (ev):

    -4.0577   1.0891   3.3904   3.8429

          k =-0.3750 1.1250-0.3750 (   293 PWs)   bands (ev):

    -2.9537  -0.5728   2.0923   4.1566

          k =-0.3750 1.6250-0.3750 (   296 PWs)   bands (ev):

    -4.1569   0.1299   4.9423   4.9423

          k =-0.3750-1.1250-0.3750 (   293 PWs)   bands (ev):

    -2.9537  -0.5728   2.0923   4.1566

          k =-0.3750-0.6250-0.3750 (   298 PWs)   bands (ev):

    -3.4494  -0.6590   3.7618   4.4751

     highest occupied level (ev):     5.7347

     Writing output data file Si1.save/

     phonons of Si                                                              

     bravais-lattice index     =            2
     lattice parameter (alat)  =      10.3295  a.u.
     unit-cell volume          =     275.5397 (a.u.)^3
     number of atoms/cell      =            2
     number of atomic types    =            1
     kinetic-energy cut-off    =      16.0000  Ry
     charge density cut-off    =      64.0000  Ry
     convergence threshold     =      1.0E-12
     beta                      =       0.7000
     number of iterations used =            4
     Exchange-correlation      = PBE ( 1  4  3  4 0 0)


     celldm(1)=   10.32955  celldm(2)=    0.00000  celldm(3)=    0.00000
     celldm(4)=    0.00000  celldm(5)=    0.00000  celldm(6)=    0.00000

     crystal axes: (cart. coord. in units of alat)
               a(1) = ( -0.5000  0.0000  0.5000 )  
               a(2) = (  0.0000  0.5000  0.5000 )  
               a(3) = ( -0.5000  0.5000  0.0000 )  

     reciprocal axes: (cart. coord. in units 2 pi/alat)
               b(1) = ( -1.0000 -1.0000  1.0000 )  
               b(2) = (  1.0000  1.0000  1.0000 )  
               b(3) = ( -1.0000  1.0000 -1.0000 )  


     Atoms inside the unit cell: 

     Cartesian axes

     site n.  atom      mass           positions (alat units)
        1     Si  28.0860   tau(    1) = (    0.00000    0.00000    0.00000  )
        2     Si  28.0860   tau(    2) = (    0.25000    0.25000    0.25000  )

     Computing dynamical matrix for 
                    q = (   0.0000000   0.5000000   0.0000000 )
 
      8 Sym.Ops. (no q -> -q+G )


     G cutoff =  172.9749  (   2421 G-vectors)     FFT grid: ( 20, 20, 20)
     number of k points=    80

     PseudoPot. # 1 for Si read from file:
     /home/planck/kedar/softwares/SSSP_precision_pseudos/Si.pbe-n-rrkjus_psl.1.0.0.UPF
     MD5 check sum: 0b0bb1205258b0d07b9f9672cf965d36
     Pseudo is Ultrasoft + core correction, Zval =  4.0
     Generated using "atomic" code by A. Dal Corso v.5.1
     Using radial grid of 1141 points,  6 beta functions with: 
                l(1) =   0
                l(2) =   0
                l(3) =   1
                l(4) =   1
                l(5) =   2
                l(6) =   2
     Q(r) pseudized with 0 coefficients 


     Mode symmetry, C_4v (4mm)  point group:


     Atomic displacements:
     There are   4 irreducible representations

     Representation     1      1 modes -A_1  G_1 D_1  To be done

     Representation     2      1 modes -B_2  G_4 D_2'  To be done

     Representation     3      2 modes -E    G_5 D_5  To be done

     Representation     4      2 modes -E    G_5 D_5  To be done



     Alpha used in Ewald sum =   0.7000
     PHONON       :    32.24s CPU        40.73s WALL



     Representation #  1 mode #   1

     Self-consistent Calculation

      iter #   1 total cpu time :    41.0 secs   av.it.:   6.3
      thresh= 1.000E-02 alpha_mix =  0.700 |ddv_scf|^2 =  2.972E-03

      iter #   2 total cpu time :    41.4 secs   av.it.:   8.0
      thresh= 5.452E-03 alpha_mix =  0.700 |ddv_scf|^2 =  3.912E-02

      iter #   3 total cpu time :    41.7 secs   av.it.:   7.2
      thresh= 1.000E-02 alpha_mix =  0.700 |ddv_scf|^2 =  1.105E-07

      iter #   4 total cpu time :    42.1 secs   av.it.:   8.4
      thresh= 3.324E-05 alpha_mix =  0.700 |ddv_scf|^2 =  1.189E-08

      iter #   5 total cpu time :    42.4 secs   av.it.:   8.1
      thresh= 1.091E-05 alpha_mix =  0.700 |ddv_scf|^2 =  4.971E-10

      iter #   6 total cpu time :    42.8 secs   av.it.:   8.4
      thresh= 2.230E-06 alpha_mix =  0.700 |ddv_scf|^2 =  1.452E-12

      iter #   7 total cpu time :    43.2 secs   av.it.:   8.6
      thresh= 1.205E-07 alpha_mix =  0.700 |ddv_scf|^2 =  1.935E-13

     End of self-consistent calculation

     Convergence has been achieved 


     Representation #  2 mode #   2

     Self-consistent Calculation

      iter #   1 total cpu time :    43.5 secs   av.it.:   5.2
      thresh= 1.000E-02 alpha_mix =  0.700 |ddv_scf|^2 =  5.214E-06

      iter #   2 total cpu time :    43.8 secs   av.it.:   8.8
      thresh= 2.283E-04 alpha_mix =  0.700 |ddv_scf|^2 =  1.313E-06

      iter #   3 total cpu time :    44.2 secs   av.it.:   8.6
      thresh= 1.146E-04 alpha_mix =  0.700 |ddv_scf|^2 =  3.618E-08

      iter #   4 total cpu time :    44.6 secs   av.it.:   8.4
      thresh= 1.902E-05 alpha_mix =  0.700 |ddv_scf|^2 =  5.253E-10

      iter #   5 total cpu time :    44.9 secs   av.it.:   8.8
      thresh= 2.292E-06 alpha_mix =  0.700 |ddv_scf|^2 =  3.566E-12

      iter #   6 total cpu time :    45.3 secs   av.it.:   8.6
      thresh= 1.888E-07 alpha_mix =  0.700 |ddv_scf|^2 =  8.152E-14

     End of self-consistent calculation

     Convergence has been achieved 


     Representation #  3 modes #   3  4

     Self-consistent Calculation

      iter #   1 total cpu time :    45.9 secs   av.it.:   5.6
      thresh= 1.000E-02 alpha_mix =  0.700 |ddv_scf|^2 =  1.066E-06

      iter #   2 total cpu time :    46.7 secs   av.it.:   9.6
      thresh= 1.033E-04 alpha_mix =  0.700 |ddv_scf|^2 =  1.388E-07

      iter #   3 total cpu time :    47.5 secs   av.it.:   9.4
      thresh= 3.726E-05 alpha_mix =  0.700 |ddv_scf|^2 =  5.601E-09

      iter #   4 total cpu time :    48.2 secs   av.it.:   9.3
      thresh= 7.484E-06 alpha_mix =  0.700 |ddv_scf|^2 =  5.420E-12

      iter #   5 total cpu time :    49.1 secs   av.it.:   9.7
      thresh= 2.328E-07 alpha_mix =  0.700 |ddv_scf|^2 =  1.804E-13

     End of self-consistent calculation

     Convergence has been achieved 


     Representation #  4 modes #   5  6

     Self-consistent Calculation

      iter #   1 total cpu time :    49.6 secs   av.it.:   5.5
      thresh= 1.000E-02 alpha_mix =  0.700 |ddv_scf|^2 =  7.965E-07

      iter #   2 total cpu time :    50.4 secs   av.it.:   9.6
      thresh= 8.925E-05 alpha_mix =  0.700 |ddv_scf|^2 =  9.804E-08

      iter #   3 total cpu time :    51.2 secs   av.it.:   9.4
      thresh= 3.131E-05 alpha_mix =  0.700 |ddv_scf|^2 =  5.344E-09

      iter #   4 total cpu time :    52.0 secs   av.it.:   9.3
      thresh= 7.310E-06 alpha_mix =  0.700 |ddv_scf|^2 =  5.658E-12

      iter #   5 total cpu time :    52.7 secs   av.it.:   9.7
      thresh= 2.379E-07 alpha_mix =  0.700 |ddv_scf|^2 =  1.459E-13

     End of self-consistent calculation

     Convergence has been achieved 
 
     Number of q in the star =    6
     List of q in the star:
          1   0.000000000   0.500000000   0.000000000
          2   0.000000000  -0.500000000   0.000000000
          3   0.500000000   0.000000000   0.000000000
          4   0.000000000   0.000000000   0.500000000
          5   0.000000000   0.000000000  -0.500000000
          6  -0.500000000   0.000000000   0.000000000

     Diagonalizing the dynamical matrix

     q = (    0.000000000   0.500000000   0.000000000 ) 

 **************************************************************************
     freq (    1) =       3.469349 [THz] =     115.725016 [cm-1]
     freq (    2) =       3.469349 [THz] =     115.725016 [cm-1]
     freq (    3) =       6.974268 [THz] =     232.636530 [cm-1]
     freq (    4) =      13.877142 [THz] =     462.891615 [cm-1]
     freq (    5) =      13.877142 [THz] =     462.891615 [cm-1]
     freq (    6) =      14.503015 [THz] =     483.768513 [cm-1]
 **************************************************************************

     Mode symmetry, C_4v (4mm)  point group:

     freq (  1 -  2) =        115.7  [cm-1]   --> E    G_5 D_5       
     freq (  3 -  3) =        232.6  [cm-1]   --> A_1  G_1 D_1       
     freq (  4 -  5) =        462.9  [cm-1]   --> E    G_5 D_5       
     freq (  6 -  6) =        483.8  [cm-1]   --> B_2  G_4 D_2'      

     Calculation of q =    0.7500000  -0.2500000   0.7500000
 
     G-vector sticks info
     --------------------
     sticks:   dense  smooth     PW     G-vecs:    dense   smooth      PW
     Sum         241     241    109                 2421     2421     725
 

     Title: 
     phonons of Si                                                              


     bravais-lattice index     =            2
     lattice parameter (alat)  =      10.3295  a.u.
     unit-cell volume          =     275.5397 (a.u.)^3
     number of atoms/cell      =            2
     number of atomic types    =            1
     number of electrons       =         8.00
     number of Kohn-Sham states=            4
     kinetic-energy cutoff     =      16.0000  Ry
     charge density cutoff     =      64.0000  Ry
     Exchange-correlation      = PBE ( 1  4  3  4 0 0)

     celldm(1)=  10.329550  celldm(2)=   0.000000  celldm(3)=   0.000000
     celldm(4)=   0.000000  celldm(5)=   0.000000  celldm(6)=   0.000000

     crystal axes: (cart. coord. in units of alat)
               a(1) = (  -0.500000   0.000000   0.500000 )  
               a(2) = (   0.000000   0.500000   0.500000 )  
               a(3) = (  -0.500000   0.500000   0.000000 )  

     reciprocal axes: (cart. coord. in units 2 pi/alat)
               b(1) = ( -1.000000 -1.000000  1.000000 )  
               b(2) = (  1.000000  1.000000  1.000000 )  
               b(3) = ( -1.000000  1.000000 -1.000000 )  


     PseudoPot. # 1 for Si read from file:
     /home/planck/kedar/softwares/SSSP_precision_pseudos/Si.pbe-n-rrkjus_psl.1.0.0.UPF
     MD5 check sum: 0b0bb1205258b0d07b9f9672cf965d36
     Pseudo is Ultrasoft + core correction, Zval =  4.0
     Generated using "atomic" code by A. Dal Corso v.5.1
     Using radial grid of 1141 points,  6 beta functions with: 
                l(1) =   0
                l(2) =   0
                l(3) =   1
                l(4) =   1
                l(5) =   2
                l(6) =   2
     Q(r) pseudized with 0 coefficients 


     atomic species   valence    mass     pseudopotential
        Si             4.00    28.08600     Si( 1.00)

     48 Sym. Ops., with inversion, found



   Cartesian axes

     site n.     atom                  positions (alat units)
         1           Si  tau(   1) = (   0.0000000   0.0000000   0.0000000  )
         2           Si  tau(   2) = (   0.2500000   0.2500000   0.2500000  )

     number of k points=   288

     Number of k-points >= 100: set verbosity='high' to print them.

     Dense  grid:     2421 G-vectors     FFT dimensions: (  20,  20,  20)

     Estimated max dynamical RAM per process >       9.14 MB

     Check: negative/imaginary core charge=   -0.000056    0.000000

     The potential is recalculated from file :
     ./tmp/_ph0/Si1.save/charge-density.dat

     Starting wfcs are    8 atomic wfcs

     Band Structure Calculation
     Davidson diagonalization with overlap

     ethr =  1.25E-10,  avg # of iterations = 13.1

     total cpu time spent up to now is        7.5 secs

     End of band structure calculation

     Number of k-points >= 100: set verbosity='high' to print the bands.

     highest occupied level (ev):     5.7347

     Writing output data file Si1.save/

     phonons of Si                                                              

     bravais-lattice index     =            2
     lattice parameter (alat)  =      10.3295  a.u.
     unit-cell volume          =     275.5397 (a.u.)^3
     number of atoms/cell      =            2
     number of atomic types    =            1
     kinetic-energy cut-off    =      16.0000  Ry
     charge density cut-off    =      64.0000  Ry
     convergence threshold     =      1.0E-12
     beta                      =       0.7000
     number of iterations used =            4
     Exchange-correlation      = PBE ( 1  4  3  4 0 0)


     celldm(1)=   10.32955  celldm(2)=    0.00000  celldm(3)=    0.00000
     celldm(4)=    0.00000  celldm(5)=    0.00000  celldm(6)=    0.00000

     crystal axes: (cart. coord. in units of alat)
               a(1) = ( -0.5000  0.0000  0.5000 )  
               a(2) = (  0.0000  0.5000  0.5000 )  
               a(3) = ( -0.5000  0.5000  0.0000 )  

     reciprocal axes: (cart. coord. in units 2 pi/alat)
               b(1) = ( -1.0000 -1.0000  1.0000 )  
               b(2) = (  1.0000  1.0000  1.0000 )  
               b(3) = ( -1.0000  1.0000 -1.0000 )  


     Atoms inside the unit cell: 

     Cartesian axes

     site n.  atom      mass           positions (alat units)
        1     Si  28.0860   tau(    1) = (    0.00000    0.00000    0.00000  )
        2     Si  28.0860   tau(    2) = (    0.25000    0.25000    0.25000  )

     Computing dynamical matrix for 
                    q = (   0.7500000  -0.2500000   0.7500000 )
 
      2 Sym.Ops. (no q -> -q+G )


     G cutoff =  172.9749  (   2421 G-vectors)     FFT grid: ( 20, 20, 20)
     number of k points=   288

     PseudoPot. # 1 for Si read from file:
     /home/planck/kedar/softwares/SSSP_precision_pseudos/Si.pbe-n-rrkjus_psl.1.0.0.UPF
     MD5 check sum: 0b0bb1205258b0d07b9f9672cf965d36
     Pseudo is Ultrasoft + core correction, Zval =  4.0
     Generated using "atomic" code by A. Dal Corso v.5.1
     Using radial grid of 1141 points,  6 beta functions with: 
                l(1) =   0
                l(2) =   0
                l(3) =   1
                l(4) =   1
                l(5) =   2
                l(6) =   2
     Q(r) pseudized with 0 coefficients 


     Mode symmetry, C_s (m)     point group:


     Atomic displacements:
     There are   6 irreducible representations

     Representation     1      1 modes -A'  To be done

     Representation     2      1 modes -A'  To be done

     Representation     3      1 modes -A'  To be done

     Representation     4      1 modes -A'  To be done

     Representation     5      1 modes -A''  To be done

     Representation     6      1 modes -A''  To be done



     Alpha used in Ewald sum =   0.7000
     PHONON       :    45.43s CPU        57.37s WALL



     Representation #  1 mode #   1

     Self-consistent Calculation

      iter #   1 total cpu time :    58.4 secs   av.it.:   6.2
      thresh= 1.000E-02 alpha_mix =  0.700 |ddv_scf|^2 =  1.218E-04

      iter #   2 total cpu time :    59.7 secs   av.it.:   8.8
      thresh= 1.104E-03 alpha_mix =  0.700 |ddv_scf|^2 =  3.440E-04

      iter #   3 total cpu time :    60.9 secs   av.it.:   7.7
      thresh= 1.855E-03 alpha_mix =  0.700 |ddv_scf|^2 =  1.359E-06

      iter #   4 total cpu time :    62.1 secs   av.it.:   8.4
      thresh= 1.166E-04 alpha_mix =  0.700 |ddv_scf|^2 =  4.767E-08

      iter #   5 total cpu time :    63.4 secs   av.it.:   8.6
      thresh= 2.183E-05 alpha_mix =  0.700 |ddv_scf|^2 =  3.340E-09

      iter #   6 total cpu time :    64.7 secs   av.it.:   8.8
      thresh= 5.779E-06 alpha_mix =  0.700 |ddv_scf|^2 =  5.116E-11

      iter #   7 total cpu time :    65.9 secs   av.it.:   8.8
      thresh= 7.153E-07 alpha_mix =  0.700 |ddv_scf|^2 =  1.155E-12

      iter #   8 total cpu time :    67.2 secs   av.it.:   8.9
      thresh= 1.075E-07 alpha_mix =  0.700 |ddv_scf|^2 =  3.262E-13

     End of self-consistent calculation

     Convergence has been achieved 


     Representation #  2 mode #   2

     Self-consistent Calculation

      iter #   1 total cpu time :    68.3 secs   av.it.:   6.0
      thresh= 1.000E-02 alpha_mix =  0.700 |ddv_scf|^2 =  7.391E-05

      iter #   2 total cpu time :    69.6 secs   av.it.:   8.8
      thresh= 8.597E-04 alpha_mix =  0.700 |ddv_scf|^2 =  2.034E-04

      iter #   3 total cpu time :    70.8 secs   av.it.:   7.6
      thresh= 1.426E-03 alpha_mix =  0.700 |ddv_scf|^2 =  7.042E-07

      iter #   4 total cpu time :    72.1 secs   av.it.:   8.6
      thresh= 8.392E-05 alpha_mix =  0.700 |ddv_scf|^2 =  3.239E-08

      iter #   5 total cpu time :    73.4 secs   av.it.:   8.8
      thresh= 1.800E-05 alpha_mix =  0.700 |ddv_scf|^2 =  5.737E-09

      iter #   6 total cpu time :    74.6 secs   av.it.:   8.5
      thresh= 7.574E-06 alpha_mix =  0.700 |ddv_scf|^2 =  9.804E-11

      iter #   7 total cpu time :    76.0 secs   av.it.:   8.8
      thresh= 9.901E-07 alpha_mix =  0.700 |ddv_scf|^2 =  2.169E-12

      iter #   8 total cpu time :    77.4 secs   av.it.:   9.0
      thresh= 1.473E-07 alpha_mix =  0.700 |ddv_scf|^2 =  2.772E-13

     End of self-consistent calculation

     Convergence has been achieved 


     Representation #  3 mode #   3

     Self-consistent Calculation

      iter #   1 total cpu time :    78.5 secs   av.it.:   6.0
      thresh= 1.000E-02 alpha_mix =  0.700 |ddv_scf|^2 =  7.169E-05

      iter #   2 total cpu time :    79.8 secs   av.it.:   9.0
      thresh= 8.467E-04 alpha_mix =  0.700 |ddv_scf|^2 =  1.841E-04

      iter #   3 total cpu time :    81.0 secs   av.it.:   7.9
      thresh= 1.357E-03 alpha_mix =  0.700 |ddv_scf|^2 =  1.702E-06

      iter #   4 total cpu time :    82.3 secs   av.it.:   8.3
      thresh= 1.305E-04 alpha_mix =  0.700 |ddv_scf|^2 =  4.176E-08

      iter #   5 total cpu time :    83.6 secs   av.it.:   8.7
      thresh= 2.044E-05 alpha_mix =  0.700 |ddv_scf|^2 =  2.770E-09

      iter #   6 total cpu time :    84.9 secs   av.it.:   8.8
      thresh= 5.263E-06 alpha_mix =  0.700 |ddv_scf|^2 =  3.348E-11

      iter #   7 total cpu time :    86.3 secs   av.it.:   8.8
      thresh= 5.787E-07 alpha_mix =  0.700 |ddv_scf|^2 =  1.116E-12

      iter #   8 total cpu time :    87.6 secs   av.it.:   9.0
      thresh= 1.056E-07 alpha_mix =  0.700 |ddv_scf|^2 =  9.299E-13

     End of self-consistent calculation

     Convergence has been achieved 


     Representation #  4 mode #   4

     Self-consistent Calculation

      iter #   1 total cpu time :    88.7 secs   av.it.:   5.8
      thresh= 1.000E-02 alpha_mix =  0.700 |ddv_scf|^2 =  2.385E-05

      iter #   2 total cpu time :    90.1 secs   av.it.:   9.0
      thresh= 4.884E-04 alpha_mix =  0.700 |ddv_scf|^2 =  4.381E-05

      iter #   3 total cpu time :    91.4 secs   av.it.:   7.9
      thresh= 6.619E-04 alpha_mix =  0.700 |ddv_scf|^2 =  1.273E-06

      iter #   4 total cpu time :    92.7 secs   av.it.:   8.4
      thresh= 1.128E-04 alpha_mix =  0.700 |ddv_scf|^2 =  5.310E-08

      iter #   5 total cpu time :    94.0 secs   av.it.:   8.7
      thresh= 2.304E-05 alpha_mix =  0.700 |ddv_scf|^2 =  1.117E-08

      iter #   6 total cpu time :    95.4 secs   av.it.:   8.6
      thresh= 1.057E-05 alpha_mix =  0.700 |ddv_scf|^2 =  6.519E-11

      iter #   7 total cpu time :    96.8 secs   av.it.:   8.9
      thresh= 8.074E-07 alpha_mix =  0.700 |ddv_scf|^2 =  2.047E-12

      iter #   8 total cpu time :    98.1 secs   av.it.:   9.0
      thresh= 1.431E-07 alpha_mix =  0.700 |ddv_scf|^2 =  1.475E-13

     End of self-consistent calculation

     Convergence has been achieved 


     Representation #  5 mode #   5

     Self-consistent Calculation

      iter #   1 total cpu time :    99.1 secs   av.it.:   5.5
      thresh= 1.000E-02 alpha_mix =  0.700 |ddv_scf|^2 =  4.351E-06

      iter #   2 total cpu time :   100.4 secs   av.it.:   8.7
      thresh= 2.086E-04 alpha_mix =  0.700 |ddv_scf|^2 =  6.538E-07

      iter #   3 total cpu time :   101.7 secs   av.it.:   8.5
      thresh= 8.086E-05 alpha_mix =  0.700 |ddv_scf|^2 =  2.400E-08

      iter #   4 total cpu time :   103.0 secs   av.it.:   8.3
      thresh= 1.549E-05 alpha_mix =  0.700 |ddv_scf|^2 =  2.160E-11

      iter #   5 total cpu time :   104.3 secs   av.it.:   8.8
      thresh= 4.647E-07 alpha_mix =  0.700 |ddv_scf|^2 =  5.871E-13

     End of self-consistent calculation

     Convergence has been achieved 


     Representation #  6 mode #   6

     Self-consistent Calculation

      iter #   1 total cpu time :   105.3 secs   av.it.:   5.5
      thresh= 1.000E-02 alpha_mix =  0.700 |ddv_scf|^2 =  4.351E-06

[...]
        k(   57) = (   0.1250000  -0.8750000  -0.1250000), wk =   0.0625000
        k(   58) = (  -0.3750000  -1.8750000  -0.1250000), wk =   0.0000000
        k(   59) = (  -0.8750000   0.1250000  -0.1250000), wk =   0.0625000
        k(   60) = (  -1.3750000  -0.8750000  -0.1250000), wk =   0.0000000
        k(   61) = (  -1.1250000   0.3750000  -0.3750000), wk =   0.0625000
        k(   62) = (  -1.6250000  -0.6250000  -0.3750000), wk =   0.0000000
        k(   63) = (  -0.3750000   0.3750000   1.1250000), wk =   0.0625000
        k(   64) = (  -0.8750000  -0.6250000   1.1250000), wk =   0.0000000

     Dense  grid:     2421 G-vectors     FFT dimensions: (  20,  20,  20)

     Estimated max dynamical RAM per process >       9.14 MB

     Check: negative/imaginary core charge=   -0.000056    0.000000

     The potential is recalculated from file :
     ./tmp/_ph0/Si1.save/charge-density.dat

     Starting wfcs are    8 atomic wfcs

     Band Structure Calculation
     Davidson diagonalization with overlap

     ethr =  1.25E-10,  avg # of iterations = 13.0

     total cpu time spent up to now is       11.1 secs

     End of band structure calculation

          k =-0.1250 0.1250 0.1250 (   304 PWs)   bands (ev):

    -5.6168   4.4221   5.7347   5.7347

          k =-0.6250-0.8750 0.1250 (   295 PWs)   bands (ev):

    -2.4168  -0.8747   2.0332   3.1113

          k =-0.3750 0.3750-0.1250 (   298 PWs)   bands (ev):

    -4.5899   1.4229   3.7410   5.2509

          k =-0.8750-0.6250-0.1250 (   295 PWs)   bands (ev):

    -2.4168  -0.8747   2.0332   3.1113

          k = 0.3750-0.3750 0.6250 (   298 PWs)   bands (ev):

    -3.4494  -0.6590   3.7618   4.4751

          k =-0.1250-1.3750 0.6250 (   293 PWs)   bands (ev):

    -2.9537  -0.5728   2.0923   4.1566

          k = 0.1250-0.1250 0.3750 (   300 PWs)   bands (ev):

    -5.0889   2.8018   4.7210   4.7867

          k =-0.3750-1.1250 0.3750 (   293 PWs)   bands (ev):

    -2.9537  -0.5728   2.0923   4.1566

          k =-0.1250 0.6250 0.1250 (   303 PWs)   bands (ev):

    -4.0577   1.0891   3.3904   3.8429

          k =-0.6250-0.3750 0.1250 (   296 PWs)   bands (ev):

    -3.6415   0.2144   2.7478   4.1192

          k = 0.6250-0.1250 0.8750 (   295 PWs)   bands (ev):

    -2.4168  -0.8747   2.0332   3.1113

          k = 0.1250-1.1250 0.8750 (   297 PWs)   bands (ev):

    -2.5851  -0.7773   2.6436   3.3735

          k = 0.3750 0.1250 0.6250 (   296 PWs)   bands (ev):

    -3.6415   0.2144   2.7478   4.1192

          k =-0.1250-0.8750 0.6250 (   295 PWs)   bands (ev):

    -2.4168  -0.8747   2.0332   3.1113

          k =-0.1250-0.8750 0.1250 (   297 PWs)   bands (ev):

    -2.5851  -0.7773   2.6436   3.3735

          k =-0.6250-1.8750 0.1250 (   303 PWs)   bands (ev):

    -4.0577   1.0891   3.3904   3.8429

          k =-0.3750 0.3750 0.3750 (   296 PWs)   bands (ev):

    -4.1569   0.1299   4.9423   4.9423

          k =-0.8750-0.6250 0.3750 (   296 PWs)   bands (ev):

    -3.6415   0.2144   2.7478   4.1192

          k = 0.3750-0.3750 1.1250 (   293 PWs)   bands (ev):

    -2.9537  -0.5728   2.0923   4.1566

          k =-0.1250-1.3750 1.1250 (   295 PWs)   bands (ev):

    -2.4168  -0.8747   2.0332   3.1113

          k = 0.1250-0.3750 0.3750 (   298 PWs)   bands (ev):

    -4.5899   1.4229   3.7410   5.2509

          k =-0.3750-1.3750 0.3750 (   298 PWs)   bands (ev):

    -3.4494  -0.6590   3.7618   4.4751

          k = 0.3750-0.3750-0.1250 (   298 PWs)   bands (ev):

    -4.5899   1.4229   3.7410   5.2509

          k =-0.1250-1.3750-0.1250 (   303 PWs)   bands (ev):

    -4.0577   1.0891   3.3904   3.8429

          k =-0.6250 0.3750-0.3750 (   298 PWs)   bands (ev):

    -3.4494  -0.6590   3.7618   4.4751

          k =-1.1250-0.6250-0.3750 (   296 PWs)   bands (ev):

    -3.6415   0.2144   2.7478   4.1192

          k =-0.3750 0.3750 0.6250 (   298 PWs)   bands (ev):

    -3.4494  -0.6590   3.7618   4.4751

          k =-0.8750-0.6250 0.6250 (   298 PWs)   bands (ev):

    -4.5899   1.4229   3.7410   5.2509

          k =-0.3750 0.1250-0.1250 (   300 PWs)   bands (ev):

    -5.0889   2.8018   4.7210   4.7867

          k =-0.8750-0.8750-0.1250 (   297 PWs)   bands (ev):

    -2.5851  -0.7773   2.6436   3.3735

          k =-0.1250 0.1250 0.3750 (   300 PWs)   bands (ev):

    -5.0889   2.8018   4.7210   4.7867

          k =-0.6250-0.8750 0.3750 (   296 PWs)   bands (ev):

    -3.6415   0.2144   2.7478   4.1192

          k = 0.1250 0.6250-0.1250 (   303 PWs)   bands (ev):

    -4.0577   1.0891   3.3904   3.8429

          k =-0.3750-0.3750-0.1250 (   298 PWs)   bands (ev):

    -4.5899   1.4229   3.7410   5.2509

          k = 0.6250 0.1250-0.1250 (   303 PWs)   bands (ev):

    -4.0577   1.0891   3.3904   3.8429

          k = 0.1250-0.8750-0.1250 (   297 PWs)   bands (ev):

    -2.5851  -0.7773   2.6436   3.3735

          k =-0.8750 0.1250-0.6250 (   295 PWs)   bands (ev):

    -2.4168  -0.8747   2.0332   3.1113

          k =-1.3750-0.8750-0.6250 (   298 PWs)   bands (ev):

    -4.5899   1.4229   3.7410   5.2509

          k = 0.8750-0.1250 0.6250 (   295 PWs)   bands (ev):

    -2.4168  -0.8747   2.0332   3.1113

          k = 0.3750-1.1250 0.6250 (   296 PWs)   bands (ev):

    -3.6415   0.2144   2.7478   4.1192

          k =-0.6250 0.1250 0.8750 (   295 PWs)   bands (ev):

    -2.4168  -0.8747   2.0332   3.1113

          k =-1.1250-0.8750 0.8750 (   304 PWs)   bands (ev):

    -5.6168   4.4221   5.7347   5.7347

          k =-0.1250 0.8750 0.6250 (   295 PWs)   bands (ev):

    -2.4168  -0.8747   2.0332   3.1113

          k =-0.6250-0.1250 0.6250 (   293 PWs)   bands (ev):

    -2.9537  -0.5728   2.0923   4.1566

          k = 0.1250 0.8750-0.6250 (   295 PWs)   bands (ev):

    -2.4168  -0.8747   2.0332   3.1113

          k =-0.3750-0.1250-0.6250 (   296 PWs)   bands (ev):

    -3.6415   0.2144   2.7478   4.1192

          k =-0.6250-0.1250-0.3750 (   296 PWs)   bands (ev):

    -3.6415   0.2144   2.7478   4.1192

          k =-1.1250-1.1250-0.3750 (   303 PWs)   bands (ev):

    -4.0577   1.0891   3.3904   3.8429

          k = 0.6250 0.1250 0.3750 (   296 PWs)   bands (ev):

    -3.6415   0.2144   2.7478   4.1192

          k = 0.1250-0.8750 0.3750 (   295 PWs)   bands (ev):

    -2.4168  -0.8747   2.0332   3.1113

          k =-0.3750-0.1250 0.6250 (   296 PWs)   bands (ev):

    -3.6415   0.2144   2.7478   4.1192

          k =-0.8750-1.1250 0.6250 (   300 PWs)   bands (ev):

    -5.0889   2.8018   4.7210   4.7867

          k = 0.1250 0.6250 0.3750 (   296 PWs)   bands (ev):

    -3.6415   0.2144   2.7478   4.1192

          k =-0.3750-0.3750 0.3750 (   296 PWs)   bands (ev):

    -4.1569   0.1299   4.9423   4.9423

          k =-0.1250 0.6250-0.3750 (   296 PWs)   bands (ev):

    -3.6415   0.2144   2.7478   4.1192

          k =-0.6250-0.3750-0.3750 (   298 PWs)   bands (ev):

    -3.4494  -0.6590   3.7618   4.4751

          k = 0.1250-0.8750-0.1250 (   297 PWs)   bands (ev):

    -2.5851  -0.7773   2.6436   3.3735

          k =-0.3750-1.8750-0.1250 (   300 PWs)   bands (ev):

    -5.0889   2.8018   4.7210   4.7867

          k =-0.8750 0.1250-0.1250 (   297 PWs)   bands (ev):

    -2.5851  -0.7773   2.6436   3.3735

          k =-1.3750-0.8750-0.1250 (   295 PWs)   bands (ev):

    -2.4168  -0.8747   2.0332   3.1113

          k =-1.1250 0.3750-0.3750 (   293 PWs)   bands (ev):

    -2.9537  -0.5728   2.0923   4.1566

          k =-1.6250-0.6250-0.3750 (   298 PWs)   bands (ev):

    -3.4494  -0.6590   3.7618   4.4751

          k =-0.3750 0.3750 1.1250 (   293 PWs)   bands (ev):

    -2.9537  -0.5728   2.0923   4.1566

          k =-0.8750-0.6250 1.1250 (   300 PWs)   bands (ev):

    -5.0889   2.8018   4.7210   4.7867

     highest occupied level (ev):     5.7347

     Writing output data file Si1.save/

     phonons of Si                                                              

     bravais-lattice index     =            2
     lattice parameter (alat)  =      10.3295  a.u.
     unit-cell volume          =     275.5397 (a.u.)^3
     number of atoms/cell      =            2
     number of atomic types    =            1
     kinetic-energy cut-off    =      16.0000  Ry
     charge density cut-off    =      64.0000  Ry
     convergence threshold     =      1.0E-12
     beta                      =       0.7000
     number of iterations used =            4
     Exchange-correlation      = PBE ( 1  4  3  4 0 0)


     celldm(1)=   10.32955  celldm(2)=    0.00000  celldm(3)=    0.00000
     celldm(4)=    0.00000  celldm(5)=    0.00000  celldm(6)=    0.00000

     crystal axes: (cart. coord. in units of alat)
               a(1) = ( -0.5000  0.0000  0.5000 )  
               a(2) = (  0.0000  0.5000  0.5000 )  
               a(3) = ( -0.5000  0.5000  0.0000 )  

     reciprocal axes: (cart. coord. in units 2 pi/alat)
               b(1) = ( -1.0000 -1.0000  1.0000 )  
               b(2) = (  1.0000  1.0000  1.0000 )  
               b(3) = ( -1.0000  1.0000 -1.0000 )  


     Atoms inside the unit cell: 

     Cartesian axes

     site n.  atom      mass           positions (alat units)
        1     Si  28.0860   tau(    1) = (    0.00000    0.00000    0.00000  )
        2     Si  28.0860   tau(    2) = (    0.25000    0.25000    0.25000  )

     Computing dynamical matrix for 
                    q = (  -0.5000000  -1.0000000   0.0000000 )
 
      8 Sym.Ops. (no q -> -q+G )


     G cutoff =  172.9749  (   2421 G-vectors)     FFT grid: ( 20, 20, 20)
     number of k points=    64

     PseudoPot. # 1 for Si read from file:
     /home/planck/kedar/softwares/SSSP_precision_pseudos/Si.pbe-n-rrkjus_psl.1.0.0.UPF
     MD5 check sum: 0b0bb1205258b0d07b9f9672cf965d36
     Pseudo is Ultrasoft + core correction, Zval =  4.0
     Generated using "atomic" code by A. Dal Corso v.5.1
     Using radial grid of 1141 points,  6 beta functions with: 
                l(1) =   0
                l(2) =   0
                l(3) =   1
                l(4) =   1
                l(5) =   2
                l(6) =   2
     Q(r) pseudized with 0 coefficients 



     Atomic displacements:
     There are   3 irreducible representations

     Representation     1      2 modes -  To be done

     Representation     2      2 modes -  To be done

     Representation     3      2 modes -  To be done



     Alpha used in Ewald sum =   0.7000
     PHONON       :  1m53.68s CPU     2m24.59s WALL



     Representation #  1 modes #   1  2

     Self-consistent Calculation

      iter #   1 total cpu time :   145.1 secs   av.it.:   6.0
      thresh= 1.000E-02 alpha_mix =  0.700 |ddv_scf|^2 =  9.793E-06

      iter #   2 total cpu time :   145.7 secs   av.it.:   9.9
      thresh= 3.129E-04 alpha_mix =  0.700 |ddv_scf|^2 =  1.300E-05

      iter #   3 total cpu time :   146.3 secs   av.it.:   9.3
      thresh= 3.606E-04 alpha_mix =  0.700 |ddv_scf|^2 =  1.180E-08

      iter #   4 total cpu time :   147.0 secs   av.it.:   9.2
      thresh= 1.086E-05 alpha_mix =  0.700 |ddv_scf|^2 =  4.771E-11

      iter #   5 total cpu time :   147.6 secs   av.it.:   9.6
      thresh= 6.907E-07 alpha_mix =  0.700 |ddv_scf|^2 =  1.171E-12

      iter #   6 total cpu time :   148.2 secs   av.it.:   9.6
      thresh= 1.082E-07 alpha_mix =  0.700 |ddv_scf|^2 =  2.216E-14

     End of self-consistent calculation

     Convergence has been achieved 


     Representation #  2 modes #   3  4

     Self-consistent Calculation

      iter #   1 total cpu time :   148.7 secs   av.it.:   5.9
      thresh= 1.000E-02 alpha_mix =  0.700 |ddv_scf|^2 =  4.059E-06

      iter #   2 total cpu time :   149.4 secs   av.it.:   9.9
      thresh= 2.015E-04 alpha_mix =  0.700 |ddv_scf|^2 =  2.148E-06

      iter #   3 total cpu time :   150.0 secs   av.it.:   9.4
      thresh= 1.466E-04 alpha_mix =  0.700 |ddv_scf|^2 =  9.802E-09

      iter #   4 total cpu time :   150.6 secs   av.it.:   9.3
      thresh= 9.901E-06 alpha_mix =  0.700 |ddv_scf|^2 =  1.352E-11

      iter #   5 total cpu time :   151.3 secs   av.it.:   9.6
      thresh= 3.677E-07 alpha_mix =  0.700 |ddv_scf|^2 =  4.306E-13

     End of self-consistent calculation

     Convergence has been achieved 


     Representation #  3 modes #   5  6

     Self-consistent Calculation

      iter #   1 total cpu time :   151.8 secs   av.it.:   6.0
      thresh= 1.000E-02 alpha_mix =  0.700 |ddv_scf|^2 =  4.833E-06

      iter #   2 total cpu time :   152.5 secs   av.it.:  10.0
      thresh= 2.198E-04 alpha_mix =  0.700 |ddv_scf|^2 =  2.686E-06

      iter #   3 total cpu time :   153.1 secs   av.it.:   9.4
      thresh= 1.639E-04 alpha_mix =  0.700 |ddv_scf|^2 =  9.395E-09

      iter #   4 total cpu time :   153.7 secs   av.it.:   9.2
      thresh= 9.693E-06 alpha_mix =  0.700 |ddv_scf|^2 =  1.491E-11

      iter #   5 total cpu time :   154.3 secs   av.it.:   9.5
      thresh= 3.861E-07 alpha_mix =  0.700 |ddv_scf|^2 =  5.536E-13

     End of self-consistent calculation

     Convergence has been achieved 
 
     Number of q in the star =    6
     List of q in the star:
          1  -0.500000000  -1.000000000   0.000000000
          2   0.000000000   1.000000000   0.500000000
          3   0.000000000  -1.000000000  -0.500000000
          4   0.500000000   1.000000000   0.000000000
          5  -1.000000000  -0.500000000   0.000000000
          6   0.000000000  -0.500000000  -1.000000000

     Diagonalizing the dynamical matrix

     q = (   -0.500000000  -1.000000000   0.000000000 ) 

 **************************************************************************
     freq (    1) =       6.020484 [THz] =     200.821728 [cm-1]
     freq (    2) =       6.020484 [THz] =     200.821728 [cm-1]
     freq (    3) =      10.431241 [THz] =     347.948762 [cm-1]
     freq (    4) =      10.431241 [THz] =     347.948762 [cm-1]
     freq (    5) =      13.678955 [THz] =     456.280814 [cm-1]
     freq (    6) =      13.678955 [THz] =     456.280814 [cm-1]
 **************************************************************************
 
     init_run     :      0.89s CPU      1.07s WALL (       7 calls)
     electrons    :      7.81s CPU      9.91s WALL (       7 calls)

     Called by init_run:
     wfcinit      :      0.00s CPU      0.00s WALL (       7 calls)
     potinit      :      0.02s CPU      0.02s WALL (       7 calls)
     hinit0       :      0.85s CPU      1.01s WALL (       7 calls)

     Called by electrons:
     c_bands      :      7.81s CPU      9.91s WALL (       7 calls)
     v_of_rho     :      0.02s CPU      0.02s WALL (       8 calls)
     newd         :      0.02s CPU      0.03s WALL (       8 calls)

     Called by c_bands:
     init_us_2    :      1.07s CPU      1.38s WALL (   17516 calls)
     cegterg      :      6.40s CPU      8.11s WALL (     796 calls)

     Called by sum_band:

     Called by *egterg:
     h_psi        :     78.30s CPU     99.60s WALL (  168642 calls)
     s_psi        :      4.61s CPU      5.92s WALL (  340754 calls)
     g_psi        :      0.04s CPU      0.05s WALL (   10446 calls)
     cdiaghg      :      0.41s CPU      0.52s WALL (   11242 calls)

     Called by h_psi:
     h_psi:pot    :     77.88s CPU     99.06s WALL (  168642 calls)
     h_psi:calbec :      2.65s CPU      3.37s WALL (  168642 calls)
     vloc_psi     :     72.22s CPU     91.90s WALL (  168642 calls)
     add_vuspsi   :      2.33s CPU      2.99s WALL (  168642 calls)

     General routines
     calbec       :      5.06s CPU      6.44s WALL (  377054 calls)
     fft          :      0.30s CPU      0.39s WALL (    5233 calls)
     ffts         :      0.16s CPU      0.20s WALL (    2748 calls)
     fftw         :     80.50s CPU    102.49s WALL ( 1421884 calls)
     davcio       :      0.69s CPU      0.86s WALL (   78682 calls)
 
     Parallel routines
 
     PHONON       :  2m 1.42s CPU     2m34.36s WALL

     INITIALIZATION: 
     phq_setup    :      0.07s CPU      0.08s WALL (       8 calls)
     phq_init     :      2.73s CPU      3.40s WALL (       8 calls)
 
     phq_init     :      2.73s CPU      3.40s WALL (       8 calls)
     set_drhoc    :      0.35s CPU      0.44s WALL (      24 calls)
     init_vloc    :      0.00s CPU      0.00s WALL (       8 calls)
     init_us_1    :      0.89s CPU      1.07s WALL (       8 calls)
     newd         :      0.02s CPU      0.03s WALL (       8 calls)
     dvanqq       :      0.37s CPU      0.44s WALL (       8 calls)
     drho         :      1.68s CPU      2.10s WALL (       8 calls)
 
     DYNAMICAL MATRIX:
     dynmat0      :      0.44s CPU      0.55s WALL (       8 calls)
     phqscf       :    107.45s CPU    136.63s WALL (       8 calls)
     dynmatrix    :      0.01s CPU      0.01s WALL (       8 calls)
 
     phqscf       :    107.45s CPU    136.63s WALL (       8 calls)
     solve_linter :    106.74s CPU    135.75s WALL (      32 calls)
     drhodv       :      0.50s CPU      0.63s WALL (      32 calls)
 
     dynmat0      :      0.44s CPU      0.55s WALL (       8 calls)
     dynmat_us    :      0.17s CPU      0.22s WALL (       8 calls)
     d2ionq       :      0.00s CPU      0.00s WALL (       8 calls)
     dynmatcc     :      0.26s CPU      0.32s WALL (       8 calls)
 
     dynmat_us    :      0.17s CPU      0.22s WALL (       8 calls)
     addusdynmat  :      0.00s CPU      0.00s WALL (       8 calls)
 
     phqscf       :    107.45s CPU    136.63s WALL (       8 calls)
     solve_linter :    106.74s CPU    135.75s WALL (      32 calls)
 
     solve_linter :    106.74s CPU    135.75s WALL (      32 calls)
     dvqpsi_us    :      2.02s CPU      2.53s WALL (    2508 calls)
     ortho        :      0.67s CPU      0.85s WALL (   15478 calls)
     cgsolve      :     82.92s CPU    105.56s WALL (   15478 calls)
     incdrhoscf   :      8.82s CPU     11.27s WALL (   15478 calls)
     addusddens   :      2.11s CPU      2.62s WALL (     227 calls)
     vpsifft      :      6.61s CPU      8.41s WALL (   12850 calls)
     dv_of_drho   :      0.27s CPU      0.33s WALL (     294 calls)
     mix_pot      :      0.08s CPU      0.12s WALL (     200 calls)
     psymdvscf    :      0.61s CPU      0.74s WALL (     195 calls)
     newdq        :      2.29s CPU      2.89s WALL (     200 calls)
     adddvscf     :      0.32s CPU      0.41s WALL (   12970 calls)
     drhodvus     :      0.00s CPU      0.01s WALL (      32 calls)
 
     dvqpsi_us    :      2.02s CPU      2.53s WALL (    2508 calls)
     dvqpsi_us_on :      0.53s CPU      0.65s WALL (    2508 calls)
 
     cgsolve      :     82.92s CPU    105.56s WALL (   15478 calls)
     ch_psi       :     81.94s CPU    104.30s WALL (  156604 calls)
 
     ch_psi       :     81.94s CPU    104.30s WALL (  156604 calls)
     h_psi        :     78.30s CPU     99.60s WALL (  168642 calls)
     last         :      6.19s CPU      7.87s WALL (  156604 calls)
 
     h_psi        :     78.30s CPU     99.60s WALL (  168642 calls)
     add_vuspsi   :      2.33s CPU      2.99s WALL (  168642 calls)
 
     incdrhoscf   :      8.82s CPU     11.27s WALL (   15478 calls)
     addusdbec    :      0.42s CPU      0.51s WALL (   17926 calls)
 
     drhodvus     :      0.00s CPU      0.01s WALL (      32 calls)
 
      General routines
     calbec       :      5.06s CPU      6.44s WALL (  377054 calls)
     fft          :      0.30s CPU      0.39s WALL (    5233 calls)
     ffts         :      0.16s CPU      0.20s WALL (    2748 calls)
     fftw         :     80.50s CPU    102.49s WALL ( 1421884 calls)
     davcio       :      0.69s CPU      0.86s WALL (   78682 calls)
     write_rec    :      0.21s CPU      0.30s WALL (     232 calls)
 
 
     PHONON       :  2m 1.42s CPU     2m34.36s WALL

 
   This run was terminated on:  22:12:47  18Sep2019            

=------------------------------------------------------------------------------=
   JOB DONE.
=------------------------------------------------------------------------------=
